ITEM: TIMESTEP
3600
ITEM: NUMBER OF ATOMS
5880
ITEM: BOX BOUNDS pp pp ff
-27.9102 27.9102
-27.9102 27.9102
0 34.092
ITEM: ATOMS id type xs ys zs mass q 
259 1 -4.15118e-05 0.107153 0.210377 55.845 -3.23338e-07 
267 1 -2.43979e-05 0.0356884 0.210367 55.845 -2.03954e-07 
269 1 0.0357378 0.0714228 0.210398 55.845 -2.87903e-07 
271 1 0.0713326 0.107154 0.210303 55.845 -2.68745e-07 
279 1 0.0356986 6.61292e-06 0.210331 55.845 -1.86994e-07 
281 1 0.0713749 0.0356971 0.210299 55.845 -1.89856e-07 
283 1 0.107065 0.0714587 0.210421 55.845 -2.06444e-07 
293 1 0.107095 -3.06045e-05 0.210443 55.845 -1.68595e-07 
361 1 4.58679e-06 0.107098 0.126141 55.845 1.19752e-07 
369 1 4.32419e-05 0.0357491 0.12619 55.845 -1.52855e-07 
370 1 1.79226e-05 0.0713538 0.168219 55.845 -3.12219e-07 
371 1 0.0357146 0.0714703 0.126251 55.845 -3.44556e-08 
372 1 0.0356768 0.107097 0.168192 55.845 -5.4181e-08 
373 1 0.071322 0.107173 0.126202 55.845 1.3087e-07 
380 1 -4.17545e-05 -2.53641e-05 0.168011 55.845 -3.92739e-07 
381 1 0.035669 -2.14375e-05 0.126301 55.845 -7.92337e-09 
382 1 0.0356138 0.0357344 0.168109 55.845 -3.0346e-07 
383 1 0.0714152 0.0357509 0.126279 55.845 3.19448e-08 
384 1 0.0713663 0.0714283 0.168175 55.845 -2.73536e-07 
385 1 0.107024 0.0713913 0.126083 55.845 2.08665e-08 
386 1 0.107065 0.10712 0.168061 55.845 -8.3182e-08 
394 1 0.0713791 -1.68556e-06 0.168112 55.845 -1.1429e-07 
395 1 0.107143 -1.55271e-05 0.126396 55.845 9.49886e-08 
396 1 0.107107 0.0357683 0.168116 55.845 -2.58442e-07 
463 1 0 0.107143 0.0416667 55.845 1.72901e-07 
471 1 0 0.0357143 0.0416667 55.845 9.93642e-08 
472 1 4.78017e-05 0.0714212 0.0845157 55.845 -3.60911e-07 
473 1 0.0357143 0.0714286 0.0416667 55.845 1.64244e-07 
474 1 0.035741 0.107119 0.0843259 55.845 -2.04096e-07 
475 1 0.0714286 0.107143 0.0416667 55.845 4.53671e-07 
482 1 -2.66591e-05 3.39073e-05 0.0845976 55.845 -1.17864e-07 
483 1 0.0357143 0 0.0416667 55.845 2.18193e-07 
484 1 0.0357701 0.0356932 0.0844239 55.845 -2.81446e-07 
485 1 0.0714286 0.0357143 0.0416667 55.845 1.77033e-07 
486 1 0.0714006 0.0714549 0.0844415 55.845 -3.51705e-07 
487 1 0.107143 0.0714286 0.0416667 55.845 1.83326e-07 
488 1 0.107146 0.107088 0.0844577 55.845 -1.8384e-07 
496 1 0.0714608 8.51112e-06 0.0846074 55.845 -1.66773e-07 
497 1 0.107143 0 0.0416667 55.845 2.02677e-07 
498 1 0.107117 0.0357277 0.0845735 55.845 -3.47741e-07 
567 1 0 0.0714286 0 55.845 -1.03244e-07 
568 1 0.0357143 0.107143 0 55.845 1.60283e-07 
572 1 0 0 0 55.845 1.26571e-07 
573 1 0.0357143 0.0357143 0 55.845 -1.12645e-08 
574 1 0.0714286 0.0714286 0 55.845 7.26553e-08 
575 1 0.107143 0.107143 0 55.845 1.99679e-07 
579 1 0.0714286 0 0 55.845 7.0557e-08 
580 1 0.107143 0.0357143 0 55.845 -2.93984e-08 
285 1 0.142754 0.107186 0.210273 55.845 -2.85055e-07 
295 1 0.142828 0.0357324 0.210358 55.845 -2.48656e-07 
297 1 0.178531 0.0715209 0.210349 55.845 -4.54681e-07 
299 1 0.21425 0.10708 0.210296 55.845 -4.41951e-07 
307 1 0.178526 1.6461e-05 0.21042 55.845 -1.70306e-07 
309 1 0.214226 0.0355887 0.210333 55.845 -3.12141e-07 
311 1 0.24999 0.0713736 0.210293 55.845 -5.13292e-07 
387 1 0.142815 0.107091 0.126237 55.845 2.22154e-07 
397 1 0.142765 0.0356924 0.126206 55.845 2.50087e-08 
398 1 0.14281 0.071416 0.167994 55.845 -3.32903e-07 
399 1 0.178507 0.071487 0.126232 55.845 1.10977e-07 
400 1 0.178532 0.107133 0.167987 55.845 -7.78412e-08 
401 1 0.214278 0.107174 0.126296 55.845 5.04683e-08 
408 1 0.142861 -7.60786e-06 0.168143 55.845 -2.36888e-07 
409 1 0.178623 6.40307e-05 0.126293 55.845 1.21963e-07 
410 1 0.178524 0.0357345 0.168107 55.845 -3.05195e-07 
411 1 0.214345 0.0357184 0.126303 55.845 7.7705e-08 
412 1 0.214298 0.0714129 0.168077 55.845 -2.69393e-07 
413 1 0.250012 0.0714516 0.126233 55.845 2.08297e-08 
414 1 0.250063 0.10715 0.168085 55.845 -3.2202e-08 
424 1 0.214305 -7.48799e-05 0.168099 55.845 -1.63531e-07 
426 1 0.250033 0.0357226 0.168033 55.845 -2.75086e-07 
489 1 0.142857 0.107143 0.0416667 55.845 4.43803e-07 
499 1 0.142857 0.0357143 0.0416667 55.845 2.32907e-07 
500 1 0.14281 0.0714636 0.0844336 55.845 -2.24428e-07 
501 1 0.178571 0.0714286 0.0416667 55.845 3.50979e-07 
502 1 0.178605 0.107122 0.0842609 55.845 3.95835e-08 
503 1 0.214286 0.107143 0.0416667 55.845 3.63147e-07 
510 1 0.142894 -2.99397e-05 0.0844345 55.845 -2.12051e-07 
511 1 0.178571 0 0.0416667 55.845 3.58574e-07 
512 1 0.178586 0.0357747 0.0843894 55.845 -2.0929e-07 
513 1 0.214286 0.0357143 0.0416667 55.845 3.00807e-07 
514 1 0.214297 0.0714295 0.0844978 55.845 -1.43177e-07 
515 1 0.25 0.0714286 0.0416667 55.845 2.40803e-07 
516 1 0.249938 0.107033 0.0845889 55.845 -1.43747e-07 
526 1 0.2143 -2.39938e-05 0.0845686 55.845 -1.87817e-07 
528 1 0.249981 0.0356774 0.084515 55.845 -2.71845e-07 
581 1 0.142857 0.0714286 0 55.845 8.42844e-08 
582 1 0.178571 0.107143 0 55.845 2.70807e-07 
586 1 0.142857 0 0 55.845 5.99442e-08 
587 1 0.178571 0.0357143 0 55.845 1.09022e-07 
588 1 0.214286 0.0714286 0 55.845 9.86942e-08 
589 1 0.25 0.107143 0 55.845 1.87996e-07 
594 1 0.214286 0 0 55.845 4.96367e-08 
595 1 0.25 0.0357143 0 55.845 8.07143e-08 
313 1 0.285768 0.107097 0.210402 55.845 -4.45035e-07 
323 1 0.250034 -2.37348e-05 0.21041 55.845 -2.19931e-07 
325 1 0.285788 0.0357665 0.210345 55.845 -3.90605e-07 
327 1 0.321395 0.0713786 0.210384 55.845 -3.74841e-07 
329 1 0.357141 0.107133 0.210288 55.845 -8.10394e-08 
337 1 0.321401 -5.40606e-05 0.210378 55.845 -2.0112e-07 
339 1 0.357151 0.0356476 0.210392 55.845 -3.089e-07 
415 1 0.285703 0.107162 0.126326 55.845 9.54941e-08 
425 1 0.250004 -3.84078e-05 0.126254 55.845 -1.71008e-09 
427 1 0.285684 0.0357337 0.126252 55.845 5.09262e-08 
428 1 0.285706 0.0713425 0.168103 55.845 -2.53853e-07 
429 1 0.321403 0.0715645 0.126197 55.845 2.66136e-07 
430 1 0.321428 0.107195 0.168206 55.845 1.03399e-07 
431 1 0.357126 0.10714 0.126226 55.845 3.55108e-07 
439 1 0.321395 -2.74852e-05 0.126319 55.845 1.60385e-07 
440 1 0.321383 0.0357004 0.167961 55.845 -1.30241e-07 
441 1 0.357111 0.0357878 0.126109 55.845 2.6481e-07 
442 1 0.357178 0.0714049 0.168214 55.845 2.88012e-08 
517 1 0.285714 0.107143 0.0416667 55.845 3.63236e-07 
527 1 0.25 0 0.0416667 55.845 2.66431e-07 
529 1 0.285714 0.0357143 0.0416667 55.845 4.24735e-07 
530 1 0.285695 0.0713923 0.0844885 55.845 -1.42771e-07 
531 1 0.321429 0.0714286 0.0416667 55.845 4.18396e-07 
532 1 0.321399 0.107224 0.0845795 55.845 -1.93034e-08 
533 1 0.357143 0.107143 0.0416667 55.845 4.20877e-07 
603 1 0.357143 0.0714286 0 55.845 1.59303e-07 
541 1 0.321429 0 0.0416667 55.845 4.84736e-07 
542 1 0.321371 0.0357173 0.0845645 55.845 -1.13782e-07 
543 1 0.357143 0.0357143 0.0416667 55.845 4.93988e-07 
544 1 0.357114 0.0713844 0.0844564 55.845 -7.65554e-08 
602 1 0.321429 0.0357143 0 55.845 3.03015e-07 
596 1 0.285714 0.0714286 0 55.845 2.07605e-07 
597 1 0.321429 0.107143 0 55.845 1.62196e-07 
612 1 0.464286 0.0357143 0 55.845 4.35788e-08 
611 1 0.428571 0 0 55.845 1.32719e-07 
610 1 0.464286 0.107143 0 55.845 4.78284e-08 
609 1 0.428571 0.0714286 0 55.845 9.01807e-08 
608 1 0.392857 0.0357143 0 55.845 1.4615e-07 
341 1 0.392963 0.0714242 0.210197 55.845 -3.73399e-07 
343 1 0.428614 0.107136 0.210218 55.845 -3.85932e-07 
348 1 0.392898 -3.28871e-05 0.210235 55.845 -5.32516e-07 
350 1 0.428531 0.0357373 0.210366 55.845 -4.60627e-07 
352 1 0.464334 0.0714603 0.210431 55.845 -2.79303e-07 
355 1 0.464261 4.36172e-05 0.210437 55.845 -4.07249e-07 
443 1 0.392815 0.0714425 0.126178 55.845 8.63016e-08 
444 1 0.392851 0.107141 0.168073 55.845 -5.11318e-09 
445 1 0.42852 0.107088 0.126115 55.845 -4.88709e-08 
604 1 0.392857 0.107143 0 55.845 8.78358e-08 
450 1 0.392762 -5.73049e-05 0.12626 55.845 8.03898e-08 
451 1 0.392824 0.0356987 0.168025 55.845 -1.80331e-07 
452 1 0.428556 0.0356929 0.126297 55.845 -1.88528e-07 
453 1 0.428574 0.0713871 0.168146 55.845 -2.83762e-07 
454 1 0.464323 0.0714978 0.126227 55.845 -1.98879e-07 
455 1 0.464331 0.107141 0.168117 55.845 1.93644e-08 
456 1 0.428597 3.58668e-05 0.168051 55.845 -2.07681e-07 
457 1 0.464289 -1.06719e-05 0.126191 55.845 -8.96013e-08 
458 1 0.464315 0.0357046 0.168127 55.845 -4.09928e-08 
545 1 0.392857 0.0714286 0.0416667 55.845 3.48433e-07 
546 1 0.39275 0.107129 0.0844977 55.845 -1.25183e-07 
547 1 0.428571 0.107143 0.0416667 55.845 3.11437e-07 
552 1 0.392857 0 0.0416667 55.845 3.41542e-07 
553 1 0.392893 0.035707 0.0845214 55.845 -2.49243e-07 
554 1 0.428571 0.0357143 0.0416667 55.845 3.60082e-07 
555 1 0.428523 0.0713719 0.0844992 55.845 -2.91182e-07 
556 1 0.464286 0.0714286 0.0416667 55.845 2.75457e-07 
557 1 0.464307 0.107177 0.0845428 55.845 -1.58577e-07 
558 1 0.428532 -7.65237e-05 0.0846027 55.845 -2.98272e-07 
559 1 0.464286 0 0.0416667 55.845 3.32372e-07 
560 1 0.464238 0.035705 0.084667 55.845 -3.31062e-07 
255 1 -7.52327e-05 0.178567 0.210355 55.845 -4.02886e-07 
257 1 0.0357434 0.214249 0.210235 55.845 -3.08124e-07 
261 1 0.035697 0.142813 0.210304 55.845 -2.05101e-07 
263 1 0.0713962 0.178557 0.210372 55.845 -2.76077e-07 
265 1 0.107206 0.214223 0.210402 55.845 -5.00139e-07 
273 1 0.107072 0.142843 0.210411 55.845 -1.95842e-07 
357 1 1.11426e-05 0.178535 0.126123 55.845 -1.68473e-08 
358 1 -1.07504e-06 0.214279 0.16795 55.845 -3.34326e-07 
359 1 0.0357061 0.214301 0.126219 55.845 2.27098e-08 
360 1 0.0357452 0.250028 0.168027 55.845 -1.36776e-07 
362 1 -5.07929e-05 0.142854 0.168135 55.845 -1.95368e-08 
363 1 0.0357088 0.142773 0.126354 55.845 1.8529e-07 
364 1 0.0356875 0.178601 0.168134 55.845 -1.93514e-07 
365 1 0.071398 0.178566 0.126356 55.845 2.88211e-08 
366 1 0.0714124 0.214264 0.168205 55.845 -3.16096e-07 
367 1 0.107098 0.214262 0.126276 55.845 -1.44201e-07 
368 1 0.10707 0.250008 0.168129 55.845 -3.55227e-07 
374 1 0.0714044 0.142893 0.168148 55.845 8.17804e-09 
375 1 0.107086 0.142861 0.126328 55.845 2.24073e-07 
376 1 0.107125 0.17862 0.168145 55.845 -2.04286e-07 
459 1 0 0.178571 0.0416667 55.845 1.6248e-07 
460 1 1.84204e-05 0.21422 0.0843741 55.845 -2.37527e-07 
461 1 0.0357143 0.214286 0.0416667 55.845 2.48646e-07 
462 1 0.0356723 0.249973 0.0844645 55.845 -1.08349e-07 
464 1 6.62497e-05 0.142876 0.0845255 55.845 -2.39674e-07 
465 1 0.0357143 0.142857 0.0416667 55.845 4.32419e-07 
466 1 0.0356967 0.178531 0.0844988 55.845 -2.01162e-07 
467 1 0.0714286 0.178571 0.0416667 55.845 2.97509e-07 
468 1 0.0714164 0.214271 0.0846205 55.845 -2.70596e-07 
469 1 0.107143 0.214286 0.0416667 55.845 2.18856e-07 
470 1 0.107174 0.250005 0.084617 55.845 -2.23097e-07 
476 1 0.071393 0.142896 0.0845441 55.845 -1.47102e-07 
477 1 0.107143 0.142857 0.0416667 55.845 3.86235e-07 
478 1 0.107154 0.178559 0.0845721 55.845 -1.82196e-07 
561 1 0 0.214286 0 55.845 7.0816e-08 
562 1 0.0357143 0.25 0 55.845 2.89469e-07 
563 1 0 0.142857 0 55.845 1.64528e-08 
564 1 0.0357143 0.178571 0 55.845 1.12741e-07 
565 1 0.0714286 0.214286 0 55.845 1.58585e-07 
566 1 0.107143 0.25 0 55.845 1.22732e-07 
569 1 0.0714286 0.142857 0 55.845 2.15806e-07 
570 1 0.107143 0.178571 0 55.845 6.18188e-08 
275 1 0.142868 0.178608 0.210207 55.845 -2.85054e-07 
277 1 0.178541 0.214344 0.210313 55.845 -3.13205e-07 
287 1 0.178531 0.142981 0.210438 55.845 -1.87606e-07 
289 1 0.214323 0.178592 0.210293 55.845 -1.8771e-07 
291 1 0.250069 0.21435 0.210426 55.845 -3.84197e-07 
301 1 0.25 0.142875 0.210224 55.845 -3.24023e-07 
377 1 0.142835 0.178519 0.126282 55.845 -2.30046e-08 
378 1 0.142831 0.214264 0.168091 55.845 -3.84785e-07 
379 1 0.178492 0.214277 0.126275 55.845 -2.21115e-07 
388 1 0.142851 0.142793 0.168169 55.845 6.35621e-08 
389 1 0.178572 0.142903 0.126209 55.845 5.04396e-08 
390 1 0.178611 0.178616 0.168101 55.845 -4.60238e-08 
391 1 0.214361 0.178502 0.12622 55.845 -2.60048e-07 
392 1 0.214213 0.214345 0.168074 55.845 -1.74477e-07 
393 1 0.250043 0.214185 0.126218 55.845 -2.23939e-07 
402 1 0.214239 0.142853 0.168168 55.845 3.6223e-08 
403 1 0.249967 0.142874 0.126299 55.845 -1.2396e-07 
404 1 0.249958 0.178651 0.168038 55.845 -8.69168e-08 
479 1 0.142857 0.178571 0.0416667 55.845 2.8523e-07 
480 1 0.14284 0.214277 0.0845082 55.845 -1.46247e-07 
481 1 0.178571 0.214286 0.0416667 55.845 2.8124e-07 
490 1 0.142828 0.142754 0.0844918 55.845 6.51857e-08 
491 1 0.178571 0.142857 0.0416667 55.845 4.77225e-07 
492 1 0.178612 0.178541 0.0845729 55.845 -1.0424e-07 
493 1 0.214286 0.178571 0.0416667 55.845 2.58976e-07 
494 1 0.214337 0.214238 0.0845702 55.845 -1.40968e-07 
495 1 0.25 0.214286 0.0416667 55.845 2.31474e-07 
504 1 0.214229 0.142842 0.0845353 55.845 -9.25785e-08 
505 1 0.25 0.142857 0.0416667 55.845 2.87874e-07 
506 1 0.250042 0.178576 0.0845332 55.845 -1.79865e-07 
571 1 0.142857 0.214286 0 55.845 6.92232e-08 
576 1 0.142857 0.142857 0 55.845 1.5135e-07 
577 1 0.178571 0.178571 0 55.845 1.94423e-07 
578 1 0.214286 0.214286 0 55.845 5.78151e-08 
583 1 0.214286 0.142857 0 55.845 1.90385e-07 
584 1 0.25 0.178571 0 55.845 1.21558e-07 
303 1 0.285644 0.1786 0.210409 55.845 -4.34276e-07 
305 1 0.321396 0.214301 0.210306 55.845 -4.12295e-07 
315 1 0.321471 0.142899 0.210406 55.845 -2.75268e-07 
317 1 0.357151 0.178565 0.210361 55.845 -3.15844e-07 
405 1 0.285761 0.178525 0.126254 55.845 -2.11111e-07 
406 1 0.285736 0.214191 0.168048 55.845 -2.30079e-07 
407 1 0.321372 0.214253 0.126229 55.845 -5.79497e-08 
416 1 0.28579 0.142952 0.168245 55.845 5.35258e-09 
417 1 0.321445 0.142889 0.12636 55.845 1.31033e-07 
418 1 0.321422 0.1786 0.168154 55.845 -2.36012e-07 
419 1 0.357125 0.178533 0.126328 55.845 -1.3617e-07 
420 1 0.357155 0.214325 0.168142 55.845 -2.02333e-07 
432 1 0.35713 0.142851 0.168182 55.845 5.04748e-08 
507 1 0.285714 0.178571 0.0416667 55.845 2.45805e-07 
508 1 0.285743 0.214219 0.0844972 55.845 -1.93253e-07 
509 1 0.321429 0.214286 0.0416667 55.845 1.23571e-07 
518 1 0.285753 0.142801 0.0846285 55.845 -1.33576e-07 
519 1 0.321429 0.142857 0.0416667 55.845 3.82544e-07 
520 1 0.321492 0.17851 0.0844994 55.845 -2.19737e-07 
521 1 0.357143 0.178571 0.0416667 55.845 2.11453e-07 
522 1 0.357136 0.214242 0.0846558 55.845 -2.79204e-07 
534 1 0.35712 0.142827 0.0844508 55.845 -8.2579e-08 
585 1 0.285714 0.214286 0 55.845 -1.07417e-07 
590 1 0.285714 0.142857 0 55.845 2.60875e-07 
591 1 0.321429 0.178571 0 55.845 4.08163e-08 
592 1 0.357143 0.214286 0 55.845 5.14904e-08 
598 1 0.357143 0.142857 0 55.845 1.28087e-07 
319 1 0.392846 0.21424 0.210351 55.845 -3.05463e-07 
321 1 0.428525 0.250031 0.210177 55.845 -2.12838e-07 
331 1 0.392892 0.142829 0.210339 55.845 -3.08476e-07 
333 1 0.42857 0.178571 0.210415 55.845 -4.63876e-07 
335 1 0.464236 0.214269 0.210282 55.845 -2.40211e-07 
345 1 0.464319 0.142832 0.210327 55.845 -2.2825e-07 
606 1 0.464286 0.178571 0 55.845 -7.21916e-08 
421 1 0.392818 0.214295 0.126228 55.845 -1.08342e-07 
422 1 0.392864 0.25001 0.168128 55.845 -1.53861e-07 
423 1 0.428665 0.249991 0.126333 55.845 1.79092e-07 
433 1 0.392771 0.142842 0.126351 55.845 -1.54264e-09 
434 1 0.392928 0.17858 0.168074 55.845 -3.94317e-07 
435 1 0.428568 0.178658 0.126233 55.845 -2.42084e-07 
436 1 0.428544 0.214251 0.168142 55.845 -3.41712e-07 
437 1 0.464275 0.214256 0.126276 55.845 -4.10239e-08 
605 1 0.428571 0.142857 0 55.845 -5.18356e-08 
446 1 0.428623 0.142853 0.168093 55.845 -2.10477e-07 
447 1 0.464304 0.14284 0.126175 55.845 -2.55564e-08 
448 1 0.464344 0.178604 0.168 55.845 -2.34829e-07 
523 1 0.392857 0.214286 0.0416667 55.845 1.97993e-07 
524 1 0.392862 0.249979 0.0844852 55.845 -1.77561e-07 
525 1 0.428571 0.25 0.0416667 55.845 2.70963e-07 
535 1 0.392857 0.142857 0.0416667 55.845 3.03822e-07 
536 1 0.392847 0.178581 0.0845579 55.845 -2.83858e-07 
537 1 0.428571 0.178571 0.0416667 55.845 1.22851e-07 
538 1 0.428591 0.214316 0.0845266 55.845 -3.16482e-07 
539 1 0.464286 0.214286 0.0416667 55.845 2.55418e-07 
548 1 0.428553 0.142856 0.0847155 55.845 -2.76552e-07 
549 1 0.464286 0.142857 0.0416667 55.845 2.33564e-07 
550 1 0.46422 0.178539 0.0844536 55.845 -2.44422e-07 
593 1 0.392857 0.25 0 55.845 2.5638e-07 
599 1 0.392857 0.178571 0 55.845 2.78588e-08 
600 1 0.428571 0.214286 0 55.845 6.06361e-09 
3 1 1.80315e-05 0.107135 0.463257 55.845 8.49188e-08 
7 1 -1.17113e-05 0.0356619 0.463352 55.845 -3.40205e-08 
8 1 0.0357269 0.0713778 0.463063 55.845 9.3148e-08 
9 1 0.0714108 0.107226 0.463172 55.845 7.93795e-09 
13 1 0.0357156 -1.39165e-06 0.463231 55.845 1.14667e-07 
14 1 0.0713923 0.0356692 0.46325 55.845 7.13696e-08 
15 1 0.10708 0.0714014 0.463157 55.845 -2.61053e-07 
20 1 0.10705 2.82509e-05 0.463229 55.845 2.27558e-07 
55 1 -6.69679e-05 0.107135 0.379526 55.845 -2.0533e-07 
63 1 -4.46249e-05 0.0357187 0.379564 55.845 -3.0568e-07 
64 1 -3.31705e-05 0.0713855 0.421795 55.845 -2.61252e-07 
65 1 0.0357108 0.0714413 0.379537 55.845 -3.41376e-07 
66 1 0.0356651 0.107154 0.421695 55.845 -8.79057e-08 
67 1 0.0714604 0.10713 0.379484 55.845 -1.62223e-07 
74 1 4.80953e-05 -4.98546e-05 0.421727 55.845 -3.22396e-08 
75 1 0.0357138 -4.44412e-05 0.379547 55.845 2.22114e-07 
76 1 0.0356625 0.0357043 0.421648 55.845 -9.67323e-08 
77 1 0.0714122 0.0357836 0.379483 55.845 -1.60905e-07 
78 1 0.0714391 0.0714253 0.421771 55.845 -2.49395e-07 
79 1 0.107087 0.0714483 0.379437 55.845 -4.40134e-07 
80 1 0.107083 0.107168 0.421765 55.845 -1.96045e-07 
88 1 0.0713822 5.31932e-05 0.421592 55.845 2.24892e-07 
89 1 0.107147 3.63587e-05 0.379556 55.845 8.06699e-08 
90 1 0.107123 0.0357354 0.421619 55.845 -1.80205e-07 
157 1 -0.00010459 0.107041 0.29472 55.845 8.27831e-08 
165 1 -6.10759e-05 0.035653 0.294747 55.845 9.37676e-08 
166 1 -2.94563e-05 0.0714044 0.336983 55.845 9.27254e-08 
167 1 0.035697 0.0713456 0.294672 55.845 -1.10589e-07 
168 1 0.0357785 0.107093 0.336842 55.845 3.39082e-07 
169 1 0.0714544 0.107145 0.294651 55.845 1.03145e-07 
176 1 -6.07055e-05 1.76259e-05 0.336829 55.845 2.53052e-07 
177 1 0.0357016 -3.56583e-05 0.294738 55.845 2.09905e-07 
178 1 0.0356774 0.0356919 0.336925 55.845 2.92308e-07 
179 1 0.0714341 0.0356675 0.294667 55.845 -2.79897e-08 
180 1 0.0714051 0.0714085 0.336843 55.845 1.491e-07 
181 1 0.107144 0.0714869 0.294692 55.845 3.77254e-08 
182 1 0.107133 0.107142 0.336873 55.845 1.39997e-07 
190 1 0.0714202 3.71679e-05 0.336932 55.845 3.81744e-07 
191 1 0.107094 -1.12284e-05 0.294914 55.845 2.18207e-07 
192 1 0.107139 0.0357842 0.336892 55.845 1.17621e-07 
268 1 5.53538e-05 0.0713523 0.252668 55.845 -1.23187e-07 
270 1 0.0356977 0.107171 0.252817 55.845 3.57075e-08 
278 1 -3.07483e-06 -1.07662e-05 0.252764 55.845 1.07044e-07 
280 1 0.035654 0.0356517 0.252567 55.845 -4.1137e-08 
282 1 0.0713944 0.0713818 0.252689 55.845 -7.00664e-08 
284 1 0.107072 0.107128 0.252651 55.845 6.0923e-08 
292 1 0.0713908 -2.53393e-05 0.2528 55.845 4.25511e-08 
294 1 0.107103 0.0357057 0.252678 55.845 -1.11605e-07 
16 1 0.142898 0.107134 0.463132 55.845 -8.54824e-08 
21 1 0.142816 0.0357606 0.46324 55.845 -1.29803e-07 
22 1 0.178505 0.0713703 0.463075 55.845 -1.55137e-07 
23 1 0.214304 0.107144 0.463154 55.845 5.25104e-08 
27 1 0.178504 1.33622e-05 0.463224 55.845 2.7351e-07 
28 1 0.214261 0.0357284 0.46325 55.845 8.92622e-08 
29 1 0.249925 0.0713924 0.463116 55.845 -4.10708e-08 
81 1 0.142843 0.107166 0.379669 55.845 -1.95825e-07 
91 1 0.142877 0.0357759 0.379464 55.845 -3.91961e-07 
92 1 0.142827 0.0714431 0.421639 55.845 -3.1673e-07 
93 1 0.178628 0.071455 0.379443 55.845 -3.2749e-07 
94 1 0.178587 0.107206 0.42169 55.845 -2.54299e-08 
95 1 0.214278 0.107191 0.379715 55.845 -1.73304e-08 
102 1 0.142848 1.47458e-05 0.421717 55.845 4.52761e-08 
103 1 0.178613 -2.53728e-05 0.379407 55.845 -1.30018e-08 
104 1 0.178479 0.0356486 0.421621 55.845 -9.34185e-08 
105 1 0.214279 0.0356758 0.379523 55.845 -2.66741e-07 
106 1 0.214218 0.0714338 0.421639 55.845 -1.15765e-07 
107 1 0.249995 0.0714071 0.379461 55.845 -2.26416e-07 
108 1 0.250032 0.107122 0.421594 55.845 -9.95871e-08 
118 1 0.214263 3.72517e-05 0.421797 55.845 2.07799e-07 
120 1 0.249937 0.0357361 0.421741 55.845 5.21253e-08 
183 1 0.142839 0.107172 0.294648 55.845 9.51479e-08 
193 1 0.14279 0.0357245 0.294661 55.845 1.56674e-07 
194 1 0.142907 0.0714997 0.336762 55.845 2.18227e-08 
195 1 0.178542 0.0713809 0.294611 55.845 -6.3264e-08 
196 1 0.178583 0.107149 0.336811 55.845 3.23484e-07 
197 1 0.214279 0.107118 0.294707 55.845 2.69637e-07 
204 1 0.142834 -3.23396e-05 0.336805 55.845 2.27011e-07 
205 1 0.178565 3.73661e-05 0.294698 55.845 3.18188e-07 
206 1 0.178648 0.0357206 0.336886 55.845 6.65638e-08 
207 1 0.21433 0.0356895 0.294645 55.845 5.31929e-08 
208 1 0.214311 0.0714457 0.336745 55.845 2.16559e-07 
209 1 0.250004 0.0714008 0.2948 55.845 8.5349e-08 
210 1 0.250019 0.107107 0.336781 55.845 2.84266e-07 
220 1 0.214337 -1.22799e-05 0.336876 55.845 2.06765e-07 
222 1 0.250087 0.0356191 0.336833 55.845 1.80751e-07 
296 1 0.142775 0.071377 0.25251 55.845 -6.44735e-08 
298 1 0.178579 0.107214 0.252541 55.845 -3.8886e-08 
306 1 0.1428 -3.98584e-05 0.252714 55.845 9.47062e-08 
308 1 0.178583 0.0357 0.252667 55.845 -1.58779e-07 
310 1 0.214327 0.0713795 0.252515 55.845 -1.50427e-07 
312 1 0.249955 0.107077 0.252613 55.845 9.53209e-08 
322 1 0.214231 -9.50315e-05 0.252677 55.845 6.01065e-08 
324 1 0.249973 0.0357593 0.252596 55.845 -1.75363e-07 
30 1 0.28567 0.10719 0.463299 55.845 1.22151e-07 
35 1 0.249988 -4.22319e-05 0.463288 55.845 2.15089e-07 
36 1 0.285596 0.0356865 0.463252 55.845 1.25498e-07 
37 1 0.321342 0.0713604 0.463252 55.845 2.94224e-08 
38 1 0.357042 0.107116 0.463202 55.845 1.19221e-08 
42 1 0.321364 4.33633e-05 0.463182 55.845 8.81319e-08 
43 1 0.357119 0.0356171 0.46317 55.845 -5.01575e-08 
109 1 0.285674 0.107154 0.379529 55.845 -1.62298e-07 
119 1 0.249981 -2.86366e-05 0.379742 55.845 -5.38692e-08 
121 1 0.285686 0.0356705 0.379671 55.845 -2.14066e-07 
122 1 0.285656 0.071437 0.421731 55.845 5.70821e-08 
123 1 0.321395 0.0714278 0.37959 55.845 -2.08739e-07 
124 1 0.32139 0.107069 0.421799 55.845 6.91178e-08 
125 1 0.35711 0.107154 0.379588 55.845 -2.4407e-07 
133 1 0.321373 3.7613e-05 0.379502 55.845 -1.05312e-07 
134 1 0.321429 0.0356757 0.421663 55.845 1.16015e-07 
135 1 0.357112 0.0356998 0.379554 55.845 -2.71256e-07 
136 1 0.357138 0.0713766 0.421754 55.845 8.52719e-10 
211 1 0.285685 0.10716 0.294678 55.845 5.90023e-08 
221 1 0.24999 -4.71047e-05 0.294693 55.845 9.067e-08 
223 1 0.285736 0.0357517 0.294736 55.845 2.33371e-08 
224 1 0.285638 0.0713881 0.336956 55.845 2.40478e-07 
225 1 0.321417 0.0714641 0.294725 55.845 9.92861e-08 
226 1 0.321399 0.107078 0.336783 55.845 3.56183e-07 
227 1 0.35721 0.107117 0.294611 55.845 4.19648e-07 
235 1 0.321426 -2.95123e-05 0.294735 55.845 1.61326e-07 
236 1 0.321339 0.0356979 0.336841 55.845 4.02589e-07 
237 1 0.35714 0.0357217 0.294668 55.845 7.5645e-08 
238 1 0.357109 0.071483 0.336872 55.845 3.73543e-07 
326 1 0.285704 0.0714162 0.252656 55.845 -7.48373e-08 
328 1 0.321504 0.107176 0.252554 55.845 3.05559e-07 
338 1 0.321456 0.0356634 0.252612 55.845 2.51588e-08 
340 1 0.357135 0.0714302 0.252538 55.845 1.5009e-07 
44 1 0.392848 0.0714299 0.463238 55.845 -1.9883e-07 
45 1 0.428534 0.10714 0.463156 55.845 -7.95593e-08 
47 1 0.39283 -4.34312e-05 0.463271 55.845 -7.49442e-08 
48 1 0.428511 0.0357422 0.463239 55.845 -1.85716e-07 
49 1 0.46419 0.0714698 0.463125 55.845 -3.35812e-08 
50 1 0.464218 1.66161e-05 0.463266 55.845 1.64882e-07 
137 1 0.392846 0.0714916 0.379549 55.845 -4.95272e-07 
138 1 0.392841 0.107149 0.421687 55.845 -6.30167e-08 
139 1 0.428512 0.107159 0.379504 55.845 -1.64309e-07 
144 1 0.392799 2.87373e-05 0.37947 55.845 -3.04972e-07 
145 1 0.392823 0.035737 0.421769 55.845 -8.25886e-08 
146 1 0.428532 0.0356125 0.37952 55.845 -3.66322e-07 
147 1 0.428503 0.0713877 0.421561 55.845 -4.16851e-08 
148 1 0.464318 0.0714753 0.379395 55.845 -2.57231e-07 
149 1 0.464207 0.107245 0.4216 55.845 2.56782e-08 
150 1 0.42856 -7.26761e-05 0.421612 55.845 3.24232e-08 
151 1 0.464298 -5.45199e-05 0.379526 55.845 -1.00752e-07 
152 1 0.464286 0.0357168 0.421675 55.845 1.18204e-07 
239 1 0.392826 0.0714506 0.294625 55.845 3.40976e-08 
240 1 0.392842 0.107103 0.336938 55.845 2.2834e-07 
241 1 0.428518 0.107211 0.294726 55.845 8.63736e-08 
246 1 0.392897 -3.69941e-05 0.294729 55.845 7.5071e-09 
247 1 0.39287 0.0356518 0.33691 55.845 3.22052e-07 
248 1 0.428601 0.0356185 0.294611 55.845 -9.6304e-08 
249 1 0.428535 0.0713872 0.336837 55.845 2.18807e-07 
250 1 0.464292 0.0714191 0.294576 55.845 -3.96354e-08 
251 1 0.464302 0.107169 0.336784 55.845 2.59476e-07 
252 1 0.428634 -3.34336e-05 0.336705 55.845 3.96852e-07 
253 1 0.464277 -6.83116e-05 0.294546 55.845 4.64172e-08 
254 1 0.464275 0.0357153 0.336849 55.845 3.62101e-07 
342 1 0.392911 0.1071 0.25259 55.845 2.96648e-07 
349 1 0.392855 0.0357011 0.252743 55.845 1.73054e-08 
351 1 0.428497 0.0714441 0.252708 55.845 -1.84767e-08 
353 1 0.464196 0.107075 0.252554 55.845 2.38563e-07 
354 1 0.428546 -8.58432e-05 0.252481 55.845 9.7045e-08 
356 1 0.464344 0.035672 0.252662 55.845 6.58952e-08 
1 1 -2.71937e-05 0.178652 0.46304 55.845 -6.25108e-08 
2 1 0.0357286 0.214249 0.463052 55.845 6.03334e-08 
4 1 0.0356693 0.142944 0.463025 55.845 2.04819e-07 
5 1 0.0713501 0.178571 0.463155 55.845 1.57554e-07 
6 1 0.107214 0.214356 0.463182 55.845 8.71e-08 
10 1 0.107153 0.142904 0.463131 55.845 7.76794e-08 
51 1 1.49914e-05 0.178591 0.379556 55.845 -3.55244e-07 
52 1 -2.43573e-05 0.214329 0.421757 55.845 -2.78732e-07 
53 1 0.0357235 0.214356 0.37951 55.845 -2.15706e-07 
54 1 0.0357039 0.250112 0.421687 55.845 -1.31737e-07 
56 1 -2.76522e-05 0.142811 0.421575 55.845 -1.73499e-07 
57 1 0.0356889 0.142869 0.379445 55.845 -5.25592e-08 
58 1 0.0357123 0.178611 0.421585 55.845 -9.71408e-08 
59 1 0.0714374 0.178581 0.379596 55.845 -6.46378e-08 
60 1 0.0714097 0.214337 0.421631 55.845 -1.45133e-07 
61 1 0.107123 0.214334 0.379556 55.845 -1.98733e-07 
62 1 0.107136 0.250076 0.421715 55.845 -1.2889e-07 
68 1 0.0714006 0.142839 0.421642 55.845 5.47598e-08 
69 1 0.107097 0.142858 0.379647 55.845 -1.01104e-08 
70 1 0.107155 0.178616 0.421667 55.845 -1.23428e-07 
153 1 6.59585e-05 0.178667 0.294635 55.845 -9.09828e-08 
154 1 5.18187e-05 0.214282 0.336838 55.845 1.14867e-07 
155 1 0.0357492 0.214327 0.294518 55.845 -2.41249e-08 
156 1 0.0356974 0.249992 0.3367 55.845 2.47497e-07 
158 1 -1.97145e-05 0.142854 0.336888 55.845 1.78802e-07 
159 1 0.0356595 0.142922 0.29466 55.845 1.59285e-07 
160 1 0.0357246 0.178637 0.336821 55.845 3.282e-07 
161 1 0.0713507 0.178602 0.294634 55.845 1.25896e-07 
162 1 0.0714685 0.214357 0.3368 55.845 1.49325e-07 
163 1 0.107111 0.214335 0.294713 55.845 5.48169e-09 
164 1 0.107202 0.250048 0.336925 55.845 8.81794e-08 
170 1 0.0713938 0.142938 0.336798 55.845 3.82685e-07 
171 1 0.107107 0.142855 0.294667 55.845 1.53671e-07 
172 1 0.107097 0.178585 0.33685 55.845 1.77966e-07 
256 1 1.08203e-05 0.214243 0.252438 55.845 -1.90973e-07 
258 1 0.0356662 0.249992 0.252622 55.845 6.46555e-08 
260 1 -9.83557e-05 0.142845 0.252616 55.845 5.8938e-08 
262 1 0.0356483 0.178615 0.252588 55.845 -1.67773e-08 
264 1 0.0714609 0.214306 0.252582 55.845 -1.215e-07 
266 1 0.107094 0.250039 0.252662 55.845 -1.07974e-07 
272 1 0.0713457 0.14288 0.252649 55.845 2.53222e-07 
274 1 0.107173 0.178585 0.252626 55.845 -7.97879e-08 
11 1 0.142868 0.178574 0.463162 55.845 1.2446e-07 
12 1 0.17855 0.21431 0.463325 55.845 1.45578e-07 
17 1 0.178622 0.142923 0.463227 55.845 1.98015e-07 
18 1 0.214331 0.178614 0.463237 55.845 2.88025e-07 
19 1 0.250006 0.214256 0.463315 55.845 -6.84576e-08 
24 1 0.249983 0.142796 0.463252 55.845 1.7549e-07 
71 1 0.142812 0.178619 0.379651 55.845 -3.29602e-08 
72 1 0.142873 0.214353 0.421792 55.845 -5.88103e-08 
73 1 0.178633 0.214256 0.379679 55.845 -1.23473e-07 
82 1 0.142871 0.142866 0.421709 55.845 1.74125e-07 
83 1 0.178588 0.142871 0.379628 55.845 1.55505e-07 
84 1 0.178569 0.178604 0.421812 55.845 1.61852e-07 
85 1 0.214288 0.178678 0.379581 55.845 6.50895e-08 
86 1 0.21429 0.214409 0.421897 55.845 -7.43396e-08 
87 1 0.249956 0.214266 0.379627 55.845 -1.49541e-07 
96 1 0.214311 0.14297 0.421706 55.845 1.85372e-07 
97 1 0.249962 0.142875 0.379523 55.845 -2.33339e-09 
98 1 0.250086 0.178561 0.421722 55.845 -1.52558e-08 
173 1 0.142818 0.178567 0.294628 55.845 7.37713e-08 
174 1 0.142889 0.214325 0.336994 55.845 2.20189e-07 
175 1 0.178597 0.214306 0.294738 55.845 9.19252e-08 
184 1 0.142836 0.142929 0.336898 55.845 1.49901e-07 
185 1 0.178608 0.142823 0.294702 55.845 2.111e-07 
186 1 0.178549 0.178579 0.336839 55.845 3.34831e-07 
187 1 0.214265 0.178571 0.294743 55.845 1.62345e-07 
188 1 0.214282 0.214296 0.33696 55.845 3.58254e-07 
189 1 0.250007 0.214279 0.29475 55.845 -2.36244e-08 
198 1 0.21433 0.142903 0.336824 55.845 4.18565e-07 
199 1 0.24997 0.142806 0.294562 55.845 1.76098e-07 
200 1 0.250008 0.1786 0.33683 55.845 3.11658e-07 
276 1 0.142893 0.214271 0.252705 55.845 -1.72784e-07 
286 1 0.142842 0.142905 0.252565 55.845 1.17681e-07 
288 1 0.178622 0.178633 0.252603 55.845 6.31468e-08 
290 1 0.214236 0.21422 0.252664 55.845 4.42721e-08 
300 1 0.214228 0.142863 0.252492 55.845 2.51888e-07 
302 1 0.250004 0.178546 0.25261 55.845 2.75869e-08 
25 1 0.285702 0.178516 0.463207 55.845 9.13316e-09 
26 1 0.321392 0.214331 0.463227 55.845 -3.1485e-08 
31 1 0.32141 0.142806 0.463277 55.845 1.34694e-07 
32 1 0.357111 0.178625 0.463216 55.845 -4.62082e-08 
99 1 0.285748 0.178601 0.379634 55.845 2.91343e-08 
100 1 0.285615 0.214291 0.421622 55.845 -1.27635e-07 
101 1 0.321448 0.214235 0.379625 55.845 -1.84919e-07 
110 1 0.285703 0.142783 0.421618 55.845 8.32885e-08 
111 1 0.321444 0.142761 0.379589 55.845 -2.22288e-08 
112 1 0.321389 0.178537 0.421699 55.845 -1.72581e-07 
113 1 0.357151 0.178462 0.379648 55.845 -9.83705e-08 
114 1 0.35704 0.214369 0.421677 55.845 -2.90084e-07 
126 1 0.357104 0.142852 0.421784 55.845 2.66152e-08 
201 1 0.28573 0.178576 0.294663 55.845 -2.8829e-08 
202 1 0.285761 0.214229 0.336873 55.845 1.5228e-07 
203 1 0.321386 0.214271 0.294749 55.845 -3.32968e-08 
212 1 0.285713 0.142935 0.336967 55.845 1.82531e-07 
213 1 0.321377 0.142799 0.294589 55.845 2.71573e-07 
214 1 0.321408 0.178479 0.336872 55.845 3.094e-07 
215 1 0.357114 0.178524 0.294793 55.845 1.77818e-07 