ITEM: TIMESTEP
2000
ITEM: NUMBER OF ATOMS
5880
ITEM: BOX BOUNDS pp pp ff
-27.9018 27.9018
-27.9018 27.9018
0 34.092
ITEM: ATOMS id type xs ys zs mass q 
259 1 -3.49692e-05 0.107157 0.209216 55.845 2.78243e-07 
267 1 -9.80312e-07 0.0357257 0.209218 55.845 2.44239e-07 
269 1 0.0357106 0.0714292 0.209313 55.845 1.22981e-07 
271 1 0.0713789 0.107126 0.209362 55.845 1.14592e-08 
279 1 0.0357444 1.43534e-05 0.20924 55.845 2.67115e-07 
281 1 0.0713917 0.0357338 0.209316 55.845 2.20899e-07 
283 1 0.107181 0.0714697 0.209306 55.845 1.40862e-07 
293 1 0.107103 -4.01683e-05 0.209183 55.845 1.50533e-07 
361 1 1.65437e-05 0.10723 0.12581 55.845 1.66253e-07 
369 1 4.2206e-05 0.0357128 0.125782 55.845 2.61806e-07 
370 1 -1.38691e-05 0.0714573 0.167457 55.845 -4.55366e-07 
371 1 0.035739 0.0714044 0.125829 55.845 1.79611e-07 
372 1 0.0357407 0.107131 0.167514 55.845 -2.25827e-07 
373 1 0.0714321 0.107165 0.125766 55.845 3.15478e-07 
380 1 5.54496e-05 5.55353e-06 0.167548 55.845 -7.26181e-07 
381 1 0.0357542 -2.14877e-05 0.125725 55.845 2.50917e-07 
382 1 0.0357997 0.0357076 0.167374 55.845 -4.4847e-07 
383 1 0.0714583 0.035678 0.125732 55.845 3.65392e-07 
384 1 0.0714858 0.0714637 0.167465 55.845 -2.59524e-07 
385 1 0.107159 0.0713888 0.125688 55.845 4.45879e-07 
386 1 0.107122 0.107173 0.167422 55.845 -2.31263e-07 
394 1 0.0714559 -6.83687e-07 0.167539 55.845 -4.05211e-07 
395 1 0.107162 4.15006e-05 0.125761 55.845 3.27794e-07 
396 1 0.107133 0.0357168 0.167512 55.845 -2.68988e-07 
463 1 0 0.107143 0.0416667 55.845 2.17095e-07 
471 1 0 0.0357143 0.0416667 55.845 3.30298e-07 
472 1 -9.08812e-05 0.0714652 0.084238 55.845 -2.69193e-07 
473 1 0.0357143 0.0714286 0.0416667 55.845 3.2081e-07 
474 1 0.0357099 0.107135 0.0840577 55.845 -1.00888e-07 
475 1 0.0714286 0.107143 0.0416667 55.845 1.08652e-07 
482 1 1.70385e-05 -2.62046e-05 0.0841907 55.845 -4.19825e-07 
483 1 0.0357143 0 0.0416667 55.845 2.7783e-07 
484 1 0.0356954 0.0356939 0.0840062 55.845 -2.14252e-07 
485 1 0.0714286 0.0357143 0.0416667 55.845 2.80771e-07 
486 1 0.071436 0.0714602 0.0840673 55.845 -1.19236e-07 
487 1 0.107143 0.0714286 0.0416667 55.845 2.00145e-08 
488 1 0.10713 0.10718 0.0840558 55.845 -8.56584e-08 
496 1 0.0714447 7.98991e-05 0.0841221 55.845 -2.7195e-07 
497 1 0.107143 0 0.0416667 55.845 4.43368e-08 
498 1 0.107183 0.0357504 0.0840817 55.845 -2.56467e-07 
567 1 0 0.0714286 0 55.845 -5.57823e-08 
568 1 0.0357143 0.107143 0 55.845 2.39507e-08 
572 1 0 0 0 55.845 -2.06426e-08 
573 1 0.0357143 0.0357143 0 55.845 4.71335e-08 
574 1 0.0714286 0.0714286 0 55.845 1.96598e-07 
575 1 0.107143 0.107143 0 55.845 -2.72989e-07 
579 1 0.0714286 0 0 55.845 -8.57601e-08 
580 1 0.107143 0.0357143 0 55.845 2.82828e-08 
285 1 0.142832 0.107163 0.209282 55.845 2.66664e-07 
295 1 0.142857 0.0357885 0.209216 55.845 2.9545e-07 
297 1 0.178628 0.0714092 0.209127 55.845 1.28485e-07 
299 1 0.214288 0.107057 0.209192 55.845 3.14148e-07 
307 1 0.1786 4.89702e-05 0.209247 55.845 3.71135e-07 
309 1 0.214327 0.0357114 0.209282 55.845 1.50472e-07 
311 1 0.249989 0.07132 0.20916 55.845 -1.20153e-07 
387 1 0.142857 0.10722 0.125733 55.845 2.30173e-07 
397 1 0.142894 0.0356711 0.125773 55.845 2.89761e-07 
398 1 0.142886 0.0714605 0.167489 55.845 -2.67335e-07 
399 1 0.178608 0.0714562 0.125715 55.845 3.77616e-07 
400 1 0.178612 0.107206 0.167569 55.845 -2.97444e-07 
401 1 0.214296 0.10715 0.12576 55.845 2.62299e-07 
408 1 0.142919 -1.43599e-05 0.167515 55.845 -4.8651e-07 
409 1 0.178595 -6.12054e-05 0.125614 55.845 3.15166e-07 
410 1 0.178638 0.0356964 0.167434 55.845 -3.75554e-07 
411 1 0.214395 0.0356488 0.125733 55.845 4.24893e-07 
412 1 0.214289 0.0714337 0.167399 55.845 -3.30839e-07 
413 1 0.250017 0.0714504 0.125741 55.845 2.71655e-07 
414 1 0.250008 0.107123 0.167479 55.845 -2.83064e-07 
424 1 0.214268 8.74661e-06 0.167314 55.845 -3.47267e-07 
426 1 0.249992 0.0356916 0.167438 55.845 -2.41179e-07 
489 1 0.142857 0.107143 0.0416667 55.845 -9.38031e-09 
499 1 0.142857 0.0357143 0.0416667 55.845 1.22951e-07 
500 1 0.142856 0.0714809 0.0841782 55.845 -3.75751e-07 
501 1 0.178571 0.0714286 0.0416667 55.845 4.76434e-08 
502 1 0.178574 0.107158 0.0841765 55.845 -2.54978e-07 
503 1 0.214286 0.107143 0.0416667 55.845 2.86391e-07 
510 1 0.142894 6.30471e-05 0.0840997 55.845 -2.99275e-07 
511 1 0.178571 0 0.0416667 55.845 2.59411e-07 
512 1 0.178632 0.0357719 0.0840981 55.845 -3.40467e-07 
513 1 0.214286 0.0357143 0.0416667 55.845 2.23274e-07 
514 1 0.214317 0.0713962 0.0840475 55.845 -3.43501e-07 
515 1 0.25 0.0714286 0.0416667 55.845 1.13512e-07 
516 1 0.250082 0.107089 0.0841746 55.845 -3.05487e-07 
526 1 0.214365 5.12989e-05 0.0840453 55.845 -2.06747e-07 
528 1 0.250053 0.0357361 0.0841758 55.845 -2.65223e-07 
581 1 0.142857 0.0714286 0 55.845 -4.97837e-08 
582 1 0.178571 0.107143 0 55.845 6.92602e-08 
586 1 0.142857 0 0 55.845 7.28515e-08 
587 1 0.178571 0.0357143 0 55.845 1.04259e-07 
588 1 0.214286 0.0714286 0 55.845 -2.12214e-07 
589 1 0.25 0.107143 0 55.845 1.05702e-08 
594 1 0.214286 0 0 55.845 -1.80822e-07 
595 1 0.25 0.0357143 0 55.845 -8.32175e-08 
313 1 0.285731 0.10713 0.209431 55.845 -2.21005e-08 
323 1 0.250027 -1.23229e-05 0.209282 55.845 1.15489e-07 
325 1 0.285765 0.0356581 0.209145 55.845 -5.44313e-08 
327 1 0.321407 0.0713539 0.209316 55.845 -4.8089e-07 
329 1 0.357162 0.107108 0.209247 55.845 -3.80697e-07 
337 1 0.321521 -1.40763e-05 0.209271 55.845 -1.67494e-07 
339 1 0.357184 0.0356987 0.209304 55.845 -4.4551e-07 
415 1 0.285742 0.10715 0.125972 55.845 1.16292e-07 
425 1 0.250039 -4.05175e-05 0.125674 55.845 1.73835e-07 
427 1 0.285743 0.0357569 0.125752 55.845 -5.27096e-08 
428 1 0.28574 0.0713743 0.167457 55.845 -5.28452e-08 
429 1 0.321425 0.0713531 0.125853 55.845 1.02504e-07 
430 1 0.321424 0.107045 0.167648 55.845 5.20554e-08 
431 1 0.357064 0.107102 0.12572 55.845 -2.22578e-07 
439 1 0.321454 -5.79966e-05 0.125898 55.845 -4.45457e-08 
440 1 0.321436 0.0356773 0.167503 55.845 2.40956e-07 
441 1 0.357132 0.0356567 0.125827 55.845 -2.08844e-07 
442 1 0.357171 0.0714058 0.16742 55.845 4.07509e-07 
517 1 0.285714 0.107143 0.0416667 55.845 8.06767e-08 
527 1 0.25 0 0.0416667 55.845 2.98558e-07 
529 1 0.285714 0.0357143 0.0416667 55.845 1.41902e-08 
530 1 0.285723 0.0714265 0.0841296 55.845 -2.87491e-07 
531 1 0.321429 0.0714286 0.0416667 55.845 -1.83964e-07 
532 1 0.321358 0.107118 0.0841602 55.845 -1.67609e-07 
533 1 0.357143 0.107143 0.0416667 55.845 -3.88204e-08 
603 1 0.357143 0.0714286 0 55.845 -1.88287e-08 
541 1 0.321429 0 0.0416667 55.845 9.73958e-08 
542 1 0.32137 0.0357024 0.0841293 55.845 -1.38307e-07 
543 1 0.357143 0.0357143 0.0416667 55.845 -7.69768e-08 
544 1 0.357103 0.0713922 0.0841361 55.845 -5.73945e-08 
602 1 0.321429 0.0357143 0 55.845 -9.12118e-08 
596 1 0.285714 0.0714286 0 55.845 -1.16535e-07 
597 1 0.321429 0.107143 0 55.845 4.59956e-08 
612 1 0.464286 0.0357143 0 55.845 -8.28076e-08 
611 1 0.428571 0 0 55.845 -1.4411e-07 
610 1 0.464286 0.107143 0 55.845 1.60545e-08 
609 1 0.428571 0.0714286 0 55.845 -6.75134e-08 
608 1 0.392857 0.0357143 0 55.845 8.34991e-09 
341 1 0.392889 0.0713823 0.209323 55.845 -6.49909e-07 
343 1 0.428542 0.107175 0.209383 55.845 -1.83042e-07 
348 1 0.392833 3.95361e-06 0.209245 55.845 -5.98985e-07 
350 1 0.428619 0.0357024 0.209332 55.845 -4.40813e-07 
352 1 0.46428 0.0714164 0.209273 55.845 -3.21738e-07 
355 1 0.464251 2.5735e-05 0.209298 55.845 -4.40726e-07 
443 1 0.392883 0.0713932 0.125728 55.845 -1.75229e-07 
444 1 0.392828 0.107125 0.167423 55.845 7.37413e-08 
445 1 0.428562 0.107129 0.125824 55.845 -1.75547e-07 
604 1 0.392857 0.107143 0 55.845 1.03783e-07 
450 1 0.392842 -2.70098e-05 0.125676 55.845 -3.02594e-07 
451 1 0.392864 0.0356831 0.167467 55.845 2.68112e-07 
452 1 0.428534 0.035723 0.125689 55.845 -9.68886e-08 
453 1 0.428599 0.0714341 0.16748 55.845 1.77134e-07 
454 1 0.464265 0.0714141 0.125739 55.845 -1.70595e-07 
455 1 0.464259 0.107197 0.167427 55.845 5.04902e-08 
456 1 0.428485 2.68323e-05 0.167364 55.845 2.75855e-07 
457 1 0.464278 -3.56041e-06 0.125681 55.845 -8.10294e-09 
458 1 0.464244 0.0356552 0.167373 55.845 3.22509e-07 
545 1 0.392857 0.0714286 0.0416667 55.845 1.11752e-07 
546 1 0.392859 0.107101 0.0840915 55.845 -8.21161e-08 
547 1 0.428571 0.107143 0.0416667 55.845 1.3999e-07 
552 1 0.392857 0 0.0416667 55.845 -1.10651e-07 
553 1 0.392778 0.0357267 0.0840293 55.845 9.80917e-08 
554 1 0.428571 0.0357143 0.0416667 55.845 8.57941e-08 
555 1 0.42863 0.0714285 0.0840623 55.845 -5.79457e-08 
556 1 0.464286 0.0714286 0.0416667 55.845 2.98735e-07 
557 1 0.464284 0.107084 0.084071 55.845 -3.79214e-08 
558 1 0.428572 3.07839e-05 0.0840906 55.845 -7.42925e-08 
559 1 0.464286 0 0.0416667 55.845 3.41827e-09 
560 1 0.464348 0.0357205 0.0841163 55.845 1.2703e-08 
255 1 -4.28111e-05 0.17855 0.209273 55.845 -4.58627e-08 
257 1 0.0357303 0.214287 0.209368 55.845 -6.47561e-08 
261 1 0.0356942 0.142884 0.209266 55.845 -1.12115e-07 
263 1 0.0714194 0.178613 0.209279 55.845 -1.60375e-07 
265 1 0.107165 0.214274 0.209414 55.845 1.61542e-07 
273 1 0.107107 0.142864 0.209279 55.845 2.48521e-08 
357 1 -2.85541e-06 0.178648 0.125934 55.845 6.57094e-08 
358 1 1.95176e-05 0.214333 0.167595 55.845 -2.16561e-07 
359 1 0.0357207 0.21434 0.12578 55.845 -6.80184e-08 
360 1 0.035687 0.249963 0.167589 55.845 -7.23106e-08 
362 1 6.38226e-05 0.142872 0.167501 55.845 -1.54795e-07 
363 1 0.0356866 0.142892 0.125795 55.845 6.83439e-08 
364 1 0.0357004 0.178566 0.167507 55.845 -8.10847e-08 
365 1 0.0714032 0.178642 0.12575 55.845 -1.49732e-07 
366 1 0.0714507 0.214333 0.167611 55.845 -3.7404e-08 
367 1 0.107161 0.214293 0.125695 55.845 2.03975e-07 
368 1 0.107109 0.24994 0.167485 55.845 -1.43497e-07 
374 1 0.0714642 0.142896 0.167374 55.845 -2.05681e-07 
375 1 0.107127 0.142905 0.125847 55.845 1.46074e-08 
376 1 0.107192 0.178654 0.167454 55.845 -5.92469e-08 
459 1 0 0.178571 0.0416667 55.845 2.13454e-07 
460 1 -4.79567e-05 0.214339 0.0842575 55.845 -1.21507e-07 
461 1 0.0357143 0.214286 0.0416667 55.845 2.3543e-07 
462 1 0.0356914 0.249963 0.0841144 55.845 -2.85014e-07 
464 1 -6.17194e-05 0.142908 0.0841549 55.845 -1.84883e-07 
465 1 0.0357143 0.142857 0.0416667 55.845 1.67213e-07 
466 1 0.0357388 0.178527 0.0841862 55.845 -1.25752e-07 
467 1 0.0714286 0.178571 0.0416667 55.845 -2.00153e-09 
468 1 0.0714516 0.214255 0.0840324 55.845 -1.37853e-07 
469 1 0.107143 0.214286 0.0416667 55.845 9.7762e-08 
470 1 0.107076 0.250069 0.0841567 55.845 -1.02767e-07 
476 1 0.0714292 0.142908 0.0841409 55.845 -1.51166e-07 
477 1 0.107143 0.142857 0.0416667 55.845 -3.40528e-08 
478 1 0.107125 0.178595 0.0840795 55.845 -2.28298e-07 
561 1 0 0.214286 0 55.845 -1.4336e-07 
562 1 0.0357143 0.25 0 55.845 3.84095e-08 
563 1 0 0.142857 0 55.845 -3.41948e-08 
564 1 0.0357143 0.178571 0 55.845 -1.13711e-07 
565 1 0.0714286 0.214286 0 55.845 2.87463e-08 
566 1 0.107143 0.25 0 55.845 6.09521e-09 
569 1 0.0714286 0.142857 0 55.845 -1.70243e-07 
570 1 0.107143 0.178571 0 55.845 -9.09158e-09 
275 1 0.142801 0.178646 0.209385 55.845 2.73888e-08 
277 1 0.178612 0.214275 0.209261 55.845 1.24394e-07 
287 1 0.178545 0.142838 0.209322 55.845 2.7584e-07 
289 1 0.214272 0.178575 0.209353 55.845 1.89313e-07 
291 1 0.249995 0.214257 0.209372 55.845 1.46817e-07 
301 1 0.249975 0.142827 0.209329 55.845 1.19822e-07 
377 1 0.142864 0.178627 0.125746 55.845 2.19931e-07 
378 1 0.14291 0.214295 0.167518 55.845 -1.00409e-07 
379 1 0.178659 0.214313 0.125782 55.845 2.44813e-07 
388 1 0.142807 0.142914 0.167465 55.845 -3.20251e-07 
389 1 0.178552 0.14284 0.125805 55.845 2.65856e-07 
390 1 0.178599 0.178585 0.167504 55.845 -2.14305e-07 
391 1 0.214222 0.178589 0.125667 55.845 1.76054e-07 
392 1 0.214326 0.214308 0.167516 55.845 -3.05555e-07 
393 1 0.25001 0.2143 0.125762 55.845 8.25569e-08 
402 1 0.214235 0.142872 0.167591 55.845 -3.56138e-07 
403 1 0.249949 0.142884 0.125726 55.845 2.34705e-07 
404 1 0.249979 0.178539 0.167516 55.845 -2.867e-07 
479 1 0.142857 0.178571 0.0416667 55.845 1.85306e-07 
480 1 0.142872 0.214325 0.0840859 55.845 -2.75899e-07 
481 1 0.178571 0.214286 0.0416667 55.845 2.44828e-07 
490 1 0.14284 0.142863 0.0841733 55.845 -4.26335e-07 
491 1 0.178571 0.142857 0.0416667 55.845 2.77425e-07 
492 1 0.178531 0.178617 0.0840864 55.845 -2.73634e-07 
493 1 0.214286 0.178571 0.0416667 55.845 3.1365e-07 
494 1 0.214387 0.214317 0.0841096 55.845 -3.765e-07 
495 1 0.25 0.214286 0.0416667 55.845 1.58137e-07 
504 1 0.214266 0.142818 0.0841172 55.845 -1.81402e-07 
505 1 0.25 0.142857 0.0416667 55.845 2.82721e-07 
506 1 0.250021 0.178613 0.0841423 55.845 -3.49777e-07 
571 1 0.142857 0.214286 0 55.845 -1.44634e-08 
576 1 0.142857 0.142857 0 55.845 1.93423e-08 
577 1 0.178571 0.178571 0 55.845 2.56042e-08 
578 1 0.214286 0.214286 0 55.845 -1.73749e-07 
583 1 0.214286 0.142857 0 55.845 5.48823e-08 
584 1 0.25 0.178571 0 55.845 4.73437e-09 
303 1 0.285748 0.17853 0.209242 55.845 1.23982e-07 
305 1 0.32151 0.214306 0.209325 55.845 1.23564e-07 
315 1 0.321487 0.142839 0.209377 55.845 -6.54154e-08 
317 1 0.357154 0.178514 0.209374 55.845 -1.15926e-07 
405 1 0.285666 0.178654 0.125834 55.845 2.1938e-07 
406 1 0.2857 0.214326 0.16763 55.845 3.85058e-09 
407 1 0.321454 0.214284 0.125841 55.845 2.13902e-07 
416 1 0.28569 0.142823 0.167544 55.845 -1.8131e-07 
417 1 0.32137 0.142747 0.125934 55.845 -2.19157e-08 
418 1 0.321411 0.178559 0.167504 55.845 -5.78955e-08 
419 1 0.357128 0.178537 0.125846 55.845 1.45966e-07 
420 1 0.357158 0.214264 0.167492 55.845 -1.70887e-07 
432 1 0.35718 0.142813 0.167522 55.845 -1.37691e-07 
507 1 0.285714 0.178571 0.0416667 55.845 1.35755e-07 
508 1 0.285793 0.214377 0.0841796 55.845 -3.94315e-07 
509 1 0.321429 0.214286 0.0416667 55.845 8.24737e-08 
518 1 0.285744 0.142892 0.0841344 55.845 -1.17773e-07 
519 1 0.321429 0.142857 0.0416667 55.845 2.21393e-07 
520 1 0.32148 0.178518 0.0841978 55.845 -2.31468e-07 
521 1 0.357143 0.178571 0.0416667 55.845 -2.79267e-08 
522 1 0.357118 0.214245 0.0841532 55.845 -2.87039e-07 
534 1 0.35706 0.142794 0.0841871 55.845 -2.79209e-07 
585 1 0.285714 0.214286 0 55.845 -6.78273e-08 
590 1 0.285714 0.142857 0 55.845 8.13172e-08 
591 1 0.321429 0.178571 0 55.845 -2.7027e-08 
592 1 0.357143 0.214286 0 55.845 5.11169e-08 
598 1 0.357143 0.142857 0 55.845 1.36347e-07 
319 1 0.392897 0.21424 0.209225 55.845 1.28521e-07 
321 1 0.428623 0.249996 0.209314 55.845 2.24106e-07 
331 1 0.392874 0.142849 0.209319 55.845 -2.28116e-07 
333 1 0.428535 0.17856 0.209351 55.845 6.16802e-08 
335 1 0.46434 0.214305 0.209239 55.845 3.15478e-07 
345 1 0.464331 0.14289 0.209331 55.845 -5.0225e-08 
606 1 0.464286 0.178571 0 55.845 -9.15012e-08 
421 1 0.392864 0.214248 0.125691 55.845 3.75405e-07 
422 1 0.392855 0.250013 0.167587 55.845 -2.73929e-07 
423 1 0.428547 0.249988 0.125738 55.845 4.71847e-07 
433 1 0.392801 0.142809 0.125815 55.845 -6.30945e-08 
434 1 0.392872 0.178515 0.167482 55.845 -4.10914e-07 
435 1 0.428576 0.178526 0.125736 55.845 2.98483e-07 
436 1 0.428528 0.214338 0.167578 55.845 -4.76274e-07 
437 1 0.46423 0.214275 0.125712 55.845 6.02072e-07 
605 1 0.428571 0.142857 0 55.845 -1.67041e-07 
446 1 0.428553 0.142799 0.167508 55.845 -2.27123e-07 
447 1 0.464288 0.142854 0.12572 55.845 -3.59147e-08 
448 1 0.46425 0.178571 0.167494 55.845 -3.41226e-07 
523 1 0.392857 0.214286 0.0416667 55.845 5.06177e-08 
524 1 0.392911 0.25001 0.0841005 55.845 -3.64571e-07 
525 1 0.428571 0.25 0.0416667 55.845 3.68605e-07 
535 1 0.392857 0.142857 0.0416667 55.845 2.25903e-07 
536 1 0.392848 0.178504 0.0841217 55.845 -2.11832e-07 
537 1 0.428571 0.178571 0.0416667 55.845 1.8328e-07 
538 1 0.42855 0.214328 0.0841895 55.845 -9.92506e-08 
539 1 0.464286 0.214286 0.0416667 55.845 2.55948e-07 
548 1 0.428532 0.142851 0.0841271 55.845 -3.97335e-08 
549 1 0.464286 0.142857 0.0416667 55.845 3.76163e-07 
550 1 0.464292 0.178542 0.0841662 55.845 -7.01093e-08 
593 1 0.392857 0.25 0 55.845 1.21598e-07 
599 1 0.392857 0.178571 0 55.845 1.27189e-08 
600 1 0.428571 0.214286 0 55.845 -4.28715e-08 
3 1 -3.4494e-05 0.107041 0.462911 55.845 -4.51096e-07 
7 1 -1.02074e-06 0.0356918 0.462818 55.845 -3.8012e-07 
8 1 0.0357119 0.0714437 0.462816 55.845 -5.48619e-07 
9 1 0.0713795 0.107163 0.462758 55.845 -5.94878e-07 
13 1 0.0357156 1.94726e-05 0.462716 55.845 -5.1368e-07 
14 1 0.0714642 0.0357 0.462736 55.845 -3.79049e-07 
15 1 0.107113 0.071461 0.462932 55.845 -3.2051e-07 
20 1 0.107101 -4.98371e-05 0.462838 55.845 -2.28169e-07 
55 1 -1.1451e-05 0.107081 0.378656 55.845 -8.19965e-08 
63 1 -1.68333e-05 0.0357455 0.378597 55.845 8.9432e-08 
64 1 2.76695e-05 0.0713329 0.420475 55.845 3.56325e-07 
65 1 0.0357799 0.0714466 0.378574 55.845 -1.1383e-07 
66 1 0.0356796 0.107087 0.420411 55.845 4.1088e-07 
67 1 0.0713946 0.107148 0.378623 55.845 -3.5392e-07 
74 1 2.88502e-05 1.71342e-05 0.420432 55.845 4.93961e-07 
75 1 0.0357176 3.73244e-05 0.378574 55.845 -1.20603e-07 
76 1 0.0356787 0.0357203 0.420434 55.845 1.76615e-07 
77 1 0.0714247 0.0357456 0.378619 55.845 -1.05857e-07 
78 1 0.0714065 0.0714707 0.420462 55.845 2.28071e-07 
79 1 0.107101 0.0714448 0.37866 55.845 -2.39779e-07 
80 1 0.107176 0.107101 0.42049 55.845 7.27552e-07 
88 1 0.0714414 -2.76024e-05 0.420565 55.845 2.889e-07 
89 1 0.1072 1.57962e-05 0.378691 55.845 -7.65372e-11 
90 1 0.107137 0.0357238 0.420394 55.845 3.56666e-07 
157 1 -1.79472e-05 0.107192 0.295088 55.845 -3.21986e-08 
165 1 5.00032e-05 0.0357267 0.295082 55.845 3.69802e-07 
166 1 4.75574e-05 0.0714182 0.337296 55.845 -3.45317e-08 
167 1 0.0357371 0.0714683 0.295022 55.845 5.98472e-08 
168 1 0.0357292 0.107136 0.337265 55.845 1.01845e-07 
169 1 0.0714628 0.107154 0.295024 55.845 -8.49644e-08 
176 1 -1.48868e-05 2.95204e-05 0.337246 55.845 5.54434e-09 
177 1 0.0357897 5.13461e-05 0.295055 55.845 2.88726e-07 
178 1 0.035743 0.0357284 0.337239 55.845 4.80889e-08 
179 1 0.071489 0.0357976 0.295054 55.845 8.89487e-08 
180 1 0.071444 0.0714891 0.337312 55.845 5.56909e-08 
181 1 0.107143 0.0714579 0.29497 55.845 1.20608e-07 
182 1 0.107113 0.10716 0.337286 55.845 2.85815e-07 
190 1 0.0714788 4.99448e-05 0.337396 55.845 -6.09387e-08 
191 1 0.107097 4.18328e-05 0.29483 55.845 1.7275e-07 
192 1 0.107129 0.0356937 0.337301 55.845 -7.22346e-09 
268 1 -7.44163e-06 0.0714451 0.252258 55.845 -4.747e-07 
270 1 0.0357015 0.107154 0.252258 55.845 -1.31484e-07 
278 1 5.46074e-05 0.000116455 0.252128 55.845 -5.81359e-07 
280 1 0.0357114 0.0357799 0.252091 55.845 -4.32041e-07 
282 1 0.0714415 0.0713923 0.252228 55.845 -1.51417e-07 
284 1 0.107107 0.10717 0.252178 55.845 -3.40736e-08 
292 1 0.0713759 2.85976e-05 0.252212 55.845 -4.96756e-07 
294 1 0.107184 0.0357417 0.252232 55.845 -2.79274e-07 
16 1 0.14293 0.107092 0.462873 55.845 -3.65294e-07 
21 1 0.142831 0.0357473 0.462721 55.845 -3.77485e-07 
22 1 0.178644 0.0713865 0.462751 55.845 -3.48003e-07 
23 1 0.214317 0.107157 0.462756 55.845 -5.16736e-07 
27 1 0.178601 -1.60776e-05 0.462788 55.845 -3.28651e-07 
28 1 0.214301 0.0357419 0.462652 55.845 -2.77071e-07 
29 1 0.250012 0.0715173 0.462768 55.845 -3.55658e-07 
81 1 0.142916 0.107158 0.378595 55.845 -5.1733e-07 
91 1 0.142852 0.0356584 0.378618 55.845 -7.07618e-08 
92 1 0.142934 0.0714015 0.420455 55.845 3.77481e-07 
93 1 0.178497 0.0714214 0.378586 55.845 -3.54674e-07 
94 1 0.178652 0.107131 0.420451 55.845 7.11224e-07 
95 1 0.214305 0.107124 0.378562 55.845 -5.93387e-07 
102 1 0.142823 7.4365e-06 0.420511 55.845 1.50006e-07 
103 1 0.178578 5.96258e-07 0.378652 55.845 1.10891e-07 
104 1 0.178565 0.0357354 0.420415 55.845 1.88416e-07 
105 1 0.214274 0.0356768 0.378469 55.845 -4.40525e-09 
106 1 0.214277 0.0714134 0.420314 55.845 5.38511e-07 
107 1 0.249996 0.0714691 0.378432 55.845 -4.16568e-07 
108 1 0.250034 0.107164 0.420438 55.845 7.46745e-07 
118 1 0.214275 -1.42692e-05 0.420492 55.845 6.71684e-08 
120 1 0.250007 0.0357791 0.420462 55.845 4.03763e-07 
183 1 0.142881 0.107143 0.294925 55.845 4.03547e-08 
193 1 0.142918 0.0357316 0.294853 55.845 2.53339e-07 
194 1 0.142861 0.0713745 0.337383 55.845 1.64412e-07 
195 1 0.178615 0.0713983 0.294891 55.845 3.15913e-07 
196 1 0.178591 0.107136 0.337146 55.845 1.66521e-07 
197 1 0.214363 0.107125 0.295022 55.845 1.07578e-07 
204 1 0.142829 8.18888e-05 0.337182 55.845 6.76939e-08 
205 1 0.178537 -3.08427e-06 0.294977 55.845 3.97791e-07 
206 1 0.178548 0.0357625 0.337316 55.845 -5.96995e-08 
207 1 0.214267 0.0355975 0.294859 55.845 2.68777e-07 
208 1 0.214236 0.0713866 0.337192 55.845 -3.70001e-08 
209 1 0.250069 0.0714428 0.294918 55.845 -5.46983e-08 
210 1 0.250069 0.10721 0.337257 55.845 2.93636e-07 
220 1 0.214225 -4.6656e-05 0.337417 55.845 -1.53012e-07 
222 1 0.249993 0.0356935 0.337241 55.845 1.05021e-07 
296 1 0.142883 0.0714189 0.252129 55.845 -2.56307e-07 
298 1 0.178594 0.107169 0.252192 55.845 -1.84481e-07 
306 1 0.142808 4.80846e-06 0.252037 55.845 -4.00122e-07 
308 1 0.17857 0.03568 0.252112 55.845 -4.21499e-07 
310 1 0.214281 0.0713736 0.252174 55.845 -3.44924e-07 
312 1 0.249953 0.107103 0.252182 55.845 -3.09233e-08 
322 1 0.214287 -2.60815e-05 0.252183 55.845 -4.58158e-07 
324 1 0.250021 0.0357463 0.252145 55.845 -2.64514e-07 
30 1 0.285759 0.107209 0.462752 55.845 -5.76566e-07 
35 1 0.250089 1.65009e-05 0.462739 55.845 -5.52852e-07 
36 1 0.28583 0.0357645 0.462824 55.845 -4.49974e-07 
37 1 0.32151 0.0714693 0.462735 55.845 -4.42653e-07 
38 1 0.357138 0.107155 0.462829 55.845 -7.67284e-07 
42 1 0.32145 4.14546e-05 0.4627 55.845 -4.45021e-07 
43 1 0.357156 0.0357374 0.462729 55.845 -6.75966e-07 
109 1 0.285716 0.107176 0.378654 55.845 -5.71132e-07 
119 1 0.250013 3.71784e-05 0.378619 55.845 -7.0497e-08 
121 1 0.285683 0.035674 0.378646 55.845 -1.48764e-07 
122 1 0.285749 0.0714872 0.42048 55.845 6.35386e-07 
123 1 0.321413 0.0714188 0.378724 55.845 -4.71576e-07 
124 1 0.32142 0.107148 0.420365 55.845 5.47347e-07 
125 1 0.357151 0.107136 0.378713 55.845 -6.39997e-07 
133 1 0.321441 4.37783e-05 0.378674 55.845 -3.15545e-07 
134 1 0.321393 0.0357248 0.420419 55.845 7.90306e-07 
135 1 0.35716 0.0357452 0.378583 55.845 -5.99412e-07 
136 1 0.357171 0.0714116 0.420428 55.845 5.75059e-07 
211 1 0.285663 0.107092 0.294844 55.845 -1.07903e-07 
221 1 0.250055 -6.68797e-05 0.294901 55.845 9.02077e-08 
223 1 0.285777 0.0357192 0.294983 55.845 -1.64626e-07 
224 1 0.285757 0.0714448 0.337248 55.845 4.04133e-07 
225 1 0.321463 0.0714118 0.295055 55.845 -4.16873e-07 
226 1 0.321458 0.107157 0.337331 55.845 6.85553e-07 
227 1 0.357174 0.107158 0.295088 55.845 -3.78458e-07 
235 1 0.321486 -3.53398e-05 0.29506 55.845 -2.5182e-07 
236 1 0.321426 0.0357713 0.33725 55.845 6.77405e-07 
237 1 0.357193 0.0357644 0.295037 55.845 -7.25548e-07 
238 1 0.357225 0.0714625 0.337412 55.845 7.05996e-07 
326 1 0.285738 0.0713982 0.25207 55.845 1.52029e-07 
328 1 0.321424 0.107126 0.252235 55.845 3.23997e-07 
338 1 0.321496 0.0356847 0.252298 55.845 2.36175e-07 
340 1 0.357175 0.0714005 0.252148 55.845 3.45763e-07 
44 1 0.392834 0.0714252 0.46286 55.845 -5.97361e-07 
45 1 0.428607 0.107099 0.462875 55.845 -6.6304e-07 
47 1 0.392932 -3.41256e-05 0.462943 55.845 -6.06332e-07 
48 1 0.428546 0.0356842 0.462815 55.845 -6.37039e-07 
49 1 0.464305 0.0713748 0.462892 55.845 -7.9174e-07 
50 1 0.464326 -2.91364e-05 0.462846 55.845 -5.75951e-07 
137 1 0.392909 0.0714027 0.378654 55.845 -8.20796e-07 
138 1 0.392835 0.107124 0.420471 55.845 6.59694e-07 
139 1 0.428569 0.107148 0.378686 55.845 -5.28977e-07 
144 1 0.392808 -1.97529e-05 0.378648 55.845 -7.1224e-07 
145 1 0.392898 0.0356835 0.420559 55.845 6.595e-07 
146 1 0.428551 0.0357517 0.378711 55.845 -7.88606e-07 
147 1 0.428512 0.0714392 0.420445 55.845 5.94361e-07 
148 1 0.464275 0.0713734 0.378712 55.845 -6.23178e-07 
149 1 0.464322 0.107138 0.420473 55.845 5.36302e-07 
150 1 0.428571 -2.95601e-05 0.420416 55.845 9.49622e-07 
151 1 0.464229 -2.59707e-05 0.378662 55.845 -7.16329e-07 
152 1 0.464283 0.0356126 0.42056 55.845 9.622e-07 
239 1 0.39284 0.07144 0.295055 55.845 -7.16946e-07 
240 1 0.392882 0.107142 0.337406 55.845 5.13582e-07 
241 1 0.428529 0.107139 0.295089 55.845 -4.52393e-07 
246 1 0.392934 1.41633e-05 0.294921 55.845 -5.61885e-07 
247 1 0.392851 0.035685 0.337194 55.845 6.04769e-07 
248 1 0.428655 0.0356833 0.29503 55.845 -7.05998e-07 
249 1 0.428526 0.0713951 0.337298 55.845 6.39819e-07 
250 1 0.464248 0.0714129 0.294984 55.845 -3.75728e-07 
251 1 0.464283 0.107099 0.337316 55.845 6.49356e-07 
252 1 0.428565 -9.08024e-06 0.337441 55.845 8.7119e-07 
253 1 0.464291 1.57877e-05 0.294972 55.845 -4.98811e-07 
254 1 0.464298 0.0356513 0.337349 55.845 7.43733e-07 
342 1 0.392832 0.1071 0.252204 55.845 3.75862e-07 
349 1 0.392884 0.0357255 0.252201 55.845 6.74242e-07 
351 1 0.428578 0.0714543 0.252207 55.845 4.92448e-07 
353 1 0.464376 0.107113 0.252148 55.845 1.13423e-07 
354 1 0.428568 -4.62001e-05 0.25232 55.845 5.05117e-07 
356 1 0.464314 0.0357406 0.252267 55.845 4.131e-07 
1 1 -3.67955e-05 0.178572 0.462697 55.845 -5.86396e-07 
2 1 0.03573 0.214281 0.46282 55.845 -6.00092e-07 
4 1 0.0357228 0.142895 0.462779 55.845 -4.33251e-07 
5 1 0.0714115 0.178569 0.462801 55.845 -4.02404e-07 
6 1 0.107115 0.214232 0.46281 55.845 -4.84618e-07 
10 1 0.107173 0.142801 0.462734 55.845 -4.19261e-07 
51 1 -8.72502e-07 0.178492 0.37884 55.845 -2.85261e-07 
52 1 -3.49294e-05 0.21429 0.42043 55.845 2.68174e-07 
53 1 0.0356709 0.214254 0.378605 55.845 -3.56725e-07 
54 1 0.0356558 0.249964 0.420518 55.845 5.4142e-07 
56 1 -3.49784e-05 0.142744 0.420489 55.845 4.643e-07 
57 1 0.0357051 0.142873 0.378708 55.845 -2.33184e-07 
58 1 0.0357342 0.178641 0.420529 55.845 4.29211e-07 
59 1 0.0714009 0.178551 0.378681 55.845 -3.12589e-07 
60 1 0.0714001 0.214259 0.420452 55.845 3.96018e-07 
61 1 0.107087 0.214266 0.378713 55.845 -3.27258e-07 
62 1 0.107151 0.249951 0.420405 55.845 3.1012e-07 
68 1 0.0714448 0.142855 0.420375 55.845 6.90281e-07 
69 1 0.107187 0.142873 0.378664 55.845 -4.17408e-07 
70 1 0.10712 0.178546 0.420382 55.845 6.12979e-07 
153 1 -4.9917e-05 0.17854 0.294982 55.845 -1.3131e-07 
154 1 -7.18397e-05 0.214259 0.337323 55.845 2.93979e-07 
155 1 0.0356649 0.214303 0.295069 55.845 -1.95967e-08 
156 1 0.0356709 0.250058 0.337383 55.845 1.5978e-07 
158 1 -6.32293e-05 0.142852 0.33729 55.845 1.46426e-07 
159 1 0.0357077 0.142875 0.294972 55.845 -2.75731e-07 
160 1 0.035666 0.178547 0.337441 55.845 2.8938e-07 
161 1 0.0713771 0.178557 0.295047 55.845 -2.86464e-07 
162 1 0.0714283 0.2143 0.337266 55.845 2.14278e-07 
163 1 0.107134 0.214215 0.294952 55.845 -8.23621e-08 
164 1 0.107151 0.250004 0.337375 55.845 9.61661e-08 
170 1 0.0714324 0.142867 0.337277 55.845 3.7079e-07 
171 1 0.107173 0.142817 0.294932 55.845 -7.78206e-08 
172 1 0.107103 0.178613 0.33731 55.845 2.52e-07 
256 1 -3.96876e-05 0.214277 0.252201 55.845 4.24379e-08 
258 1 0.0357195 0.249924 0.252321 55.845 -1.10141e-07 
260 1 4.88474e-05 0.142844 0.252127 55.845 -1.9716e-07 
262 1 0.0357259 0.178562 0.252192 55.845 -9.79189e-09 
264 1 0.0714171 0.214318 0.252241 55.845 1.59791e-07 
266 1 0.107168 0.250013 0.252141 55.845 -6.06854e-08 
272 1 0.0714162 0.142856 0.252148 55.845 -1.08658e-07 
274 1 0.107098 0.178559 0.252166 55.845 7.87955e-08 
11 1 0.142906 0.178539 0.462747 55.845 -4.97886e-07 
12 1 0.178602 0.214198 0.462775 55.845 -4.78349e-07 
17 1 0.178645 0.14282 0.462851 55.845 -4.75665e-07 
18 1 0.214349 0.178552 0.462783 55.845 -5.2578e-07 
19 1 0.249997 0.214244 0.462727 55.845 -4.98413e-07 
24 1 0.25008 0.142775 0.462721 55.845 -5.09203e-07 
71 1 0.142884 0.178538 0.378487 55.845 -5.03524e-07 
72 1 0.142834 0.214211 0.420427 55.845 4.97775e-07 
73 1 0.17859 0.214263 0.378771 55.845 -4.85633e-08 
82 1 0.142888 0.142852 0.420493 55.845 5.81823e-07 
83 1 0.178604 0.142796 0.378546 55.845 -5.66692e-07 
84 1 0.178606 0.178487 0.420365 55.845 5.40012e-07 
85 1 0.214305 0.178473 0.378693 55.845 -4.59807e-07 
86 1 0.214323 0.214266 0.420452 55.845 7.7977e-07 
87 1 0.25005 0.214232 0.378637 55.845 -3.19499e-07 
96 1 0.214315 0.142839 0.420448 55.845 7.22652e-07 
97 1 0.250074 0.142862 0.378743 55.845 -6.32926e-07 
98 1 0.250069 0.178597 0.420374 55.845 7.96824e-07 
173 1 0.142861 0.178587 0.294959 55.845 -1.64041e-07 
174 1 0.142832 0.214247 0.33734 55.845 1.3844e-07 
175 1 0.178602 0.214278 0.295033 55.845 -4.82923e-08 
184 1 0.142815 0.142825 0.337282 55.845 3.78673e-07 
185 1 0.178569 0.142911 0.294976 55.845 -8.97419e-08 
186 1 0.178546 0.178533 0.337165 55.845 2.52382e-07 
187 1 0.214295 0.178506 0.295074 55.845 3.67454e-08 
188 1 0.214268 0.214274 0.337494 55.845 1.82037e-07 
189 1 0.249987 0.214245 0.295073 55.845 -2.83511e-07 
198 1 0.21437 0.142838 0.337219 55.845 2.77987e-07 
199 1 0.250073 0.142862 0.294898 55.845 -2.19131e-07 
200 1 0.250006 0.178547 0.337221 55.845 3.53376e-07 
276 1 0.142857 0.214296 0.252194 55.845 -4.16862e-08 
286 1 0.142876 0.142877 0.252105 55.845 -2.95717e-08 
288 1 0.178604 0.178618 0.252168 55.845 -2.88036e-07 
290 1 0.21428 0.214348 0.25225 55.845 -1.31953e-07 
300 1 0.214293 0.142818 0.252237 55.845 -1.53082e-07 
302 1 0.250029 0.178568 0.25216 55.845 -1.16914e-07 
25 1 0.28576 0.178512 0.462764 55.845 -6.84879e-07 
26 1 0.32139 0.214219 0.462754 55.845 -4.79849e-07 
31 1 0.321427 0.142837 0.462779 55.845 -6.89856e-07 
32 1 0.357136 0.178529 0.462824 55.845 -5.12631e-07 
99 1 0.285743 0.178592 0.378645 55.845 -4.39518e-07 
100 1 0.285721 0.214233 0.420469 55.845 9.3546e-07 
101 1 0.321491 0.214286 0.378633 55.845 -3.38886e-07 
110 1 0.285813 0.142845 0.420427 55.845 7.56231e-07 
111 1 0.32147 0.142823 0.378619 55.845 -6.6917e-07 
112 1 0.32141 0.178519 0.420441 55.845 6.58104e-07 
113 1 0.357154 0.178584 0.378657 55.845 -3.92749e-07 
114 1 0.35715 0.214209 0.420551 55.845 5.68919e-07 
126 1 0.357129 0.142824 0.42053 55.845 4.68425e-07 
201 1 0.28577 0.178564 0.294886 55.845 -2.57089e-07 
202 1 0.285736 0.214261 0.337228 55.845 4.27967e-07 
203 1 0.321481 0.214334 0.294934 55.845 -4.06508e-07 
212 1 0.285782 0.142828 0.337295 55.845 4.69561e-07 
213 1 0.32148 0.142833 0.295042 55.845 -1.47264e-07 
214 1 0.321392 0.178577 0.337265 55.845 4.357e-07 
215 1 0.357116 0.178499 0.29502 55.845 -9.71653e-08 