ITEM: TIMESTEP
6500
ITEM: NUMBER OF ATOMS
5880
ITEM: BOX BOUNDS pp pp ff
-27.9488 27.9488
-27.9488 27.9488
0 34.092
ITEM: ATOMS id type xs ys zs mass q 
259 1 2.48071e-05 0.107183 0.209526 55.845 -3.46418e-07 
267 1 8.11874e-05 0.0357066 0.209465 55.845 -3.51949e-07 
269 1 0.0357024 0.0714503 0.209407 55.845 -2.55603e-07 
271 1 0.0714141 0.107145 0.209618 55.845 -3.01473e-07 
279 1 0.0358019 -3.94179e-05 0.209522 55.845 -2.91302e-07 
281 1 0.0714541 0.0357214 0.209407 55.845 -2.08763e-07 
283 1 0.107178 0.0714425 0.209485 55.845 -3.03875e-07 
293 1 0.107202 -6.73885e-05 0.209404 55.845 -2.69258e-07 
361 1 1.71943e-05 0.10707 0.124981 55.845 -2.17048e-07 
369 1 1.32403e-05 0.0356708 0.125179 55.845 -2.17027e-07 
370 1 1.97276e-05 0.071355 0.167207 55.845 3.2349e-07 
371 1 0.0357492 0.0714142 0.125092 55.845 -1.89516e-07 
372 1 0.0357849 0.107193 0.167052 55.845 2.49416e-07 
373 1 0.0714932 0.107112 0.125082 55.845 -1.20155e-07 
380 1 8.95626e-05 -3.68092e-05 0.167036 55.845 3.21877e-07 
381 1 0.0357362 1.99255e-05 0.124974 55.845 -1.92929e-07 
382 1 0.0357937 0.0357348 0.167166 55.845 3.02296e-07 
383 1 0.0714485 0.03577 0.125086 55.845 -1.27175e-07 
384 1 0.0713251 0.0714635 0.167262 55.845 2.60997e-07 
385 1 0.107149 0.0716075 0.125238 55.845 -6.2965e-08 
386 1 0.107096 0.107259 0.167199 55.845 2.75596e-07 
394 1 0.0714234 -1.1426e-05 0.167236 55.845 3.13222e-07 
395 1 0.107122 5.51112e-05 0.125078 55.845 -1.82809e-07 
396 1 0.107034 0.0357752 0.167171 55.845 2.61553e-07 
463 1 0 0.107143 0.0416667 55.845 1.64295e-07 
471 1 0 0.0357143 0.0416667 55.845 1.89729e-07 
472 1 7.96069e-05 0.0713799 0.0837588 55.845 -7.86739e-08 
473 1 0.0357143 0.0714286 0.0416667 55.845 2.59953e-07 
474 1 0.0356403 0.107126 0.083966 55.845 -7.16661e-08 
475 1 0.0714286 0.107143 0.0416667 55.845 2.4168e-07 
482 1 5.17624e-05 0.000106287 0.0836534 55.845 -1.67093e-07 
483 1 0.0357143 0 0.0416667 55.845 2.09069e-07 
484 1 0.0356725 0.0357076 0.0839237 55.845 -6.22032e-08 
485 1 0.0714286 0.0357143 0.0416667 55.845 2.69855e-07 
486 1 0.0714554 0.0714458 0.0838035 55.845 -7.05927e-08 
487 1 0.107143 0.0714286 0.0416667 55.845 2.3456e-07 
488 1 0.10721 0.107182 0.0837086 55.845 -1.49794e-07 
496 1 0.0713828 5.98196e-05 0.0838602 55.845 -9.88818e-08 
497 1 0.107143 0 0.0416667 55.845 2.01212e-07 
498 1 0.107135 0.0357652 0.0839956 55.845 -5.93009e-08 
567 1 0 0.0714286 0 55.845 -1.02206e-07 
568 1 0.0357143 0.107143 0 55.845 -1.5345e-07 
572 1 0 0 0 55.845 -1.05551e-07 
573 1 0.0357143 0.0357143 0 55.845 -2.96715e-08 
574 1 0.0714286 0.0714286 0 55.845 -1.28322e-07 
575 1 0.107143 0.107143 0 55.845 -1.21145e-07 
579 1 0.0714286 0 0 55.845 -9.59009e-08 
580 1 0.107143 0.0357143 0 55.845 -9.65099e-08 
285 1 0.142842 0.107234 0.209453 55.845 -3.19481e-07 
295 1 0.142793 0.0357355 0.209499 55.845 -2.89284e-07 
297 1 0.178552 0.0714683 0.20947 55.845 -2.5965e-07 
299 1 0.214271 0.10718 0.209539 55.845 -2.74557e-07 
307 1 0.178562 6.11692e-05 0.209302 55.845 -3.41848e-07 
309 1 0.214315 0.0357196 0.209326 55.845 -2.72161e-07 
311 1 0.249989 0.0714735 0.209277 55.845 -2.7545e-07 
387 1 0.142861 0.107137 0.125025 55.845 -1.17292e-07 
397 1 0.142806 0.0358447 0.125285 55.845 -6.5829e-08 
398 1 0.142854 0.0715364 0.167312 55.845 2.22745e-07 
399 1 0.178601 0.0714728 0.125176 55.845 -3.56845e-08 
400 1 0.178562 0.10718 0.167275 55.845 1.91945e-07 
401 1 0.214349 0.107102 0.124914 55.845 -1.155e-07 
408 1 0.14282 3.27476e-05 0.167288 55.845 2.9452e-07 
409 1 0.178551 0.000168116 0.125217 55.845 -1.80353e-07 
410 1 0.178607 0.0357848 0.167244 55.845 2.45388e-07 
411 1 0.214298 0.0356631 0.125146 55.845 -1.47446e-07 
412 1 0.21429 0.0714992 0.167245 55.845 1.90808e-07 
413 1 0.24999 0.0713759 0.125132 55.845 -1.72941e-07 
414 1 0.250007 0.107179 0.167136 55.845 2.45404e-07 
424 1 0.214375 1.47741e-05 0.167151 55.845 2.82835e-07 
426 1 0.250039 0.0356354 0.167163 55.845 2.24482e-07 
489 1 0.142857 0.107143 0.0416667 55.845 2.11294e-07 
499 1 0.142857 0.0357143 0.0416667 55.845 2.45078e-07 
500 1 0.142868 0.0714482 0.0837575 55.845 -1.35505e-07 
501 1 0.178571 0.0714286 0.0416667 55.845 1.92466e-07 
502 1 0.178564 0.107111 0.0837309 55.845 -1.61316e-07 
503 1 0.214286 0.107143 0.0416667 55.845 2.421e-07 
510 1 0.142863 8.41106e-05 0.0839563 55.845 -5.68145e-08 
511 1 0.178571 0 0.0416667 55.845 2.72091e-07 
512 1 0.178548 0.0358171 0.0836789 55.845 -2.02966e-07 
513 1 0.214286 0.0357143 0.0416667 55.845 2.37384e-07 
514 1 0.214335 0.0713553 0.0838023 55.845 -1.72334e-07 
515 1 0.25 0.0714286 0.0416667 55.845 2.31525e-07 
516 1 0.249946 0.107076 0.0836872 55.845 -1.74478e-07 
526 1 0.214257 -5.60057e-05 0.0838133 55.845 -4.91023e-08 
528 1 0.249972 0.0357198 0.083715 55.845 -1.35558e-07 
581 1 0.142857 0.0714286 0 55.845 -1.04073e-07 
582 1 0.178571 0.107143 0 55.845 -8.8965e-08 
586 1 0.142857 0 0 55.845 -1.1242e-07 
587 1 0.178571 0.0357143 0 55.845 -6.57195e-08 
588 1 0.214286 0.0714286 0 55.845 -5.63237e-08 
589 1 0.25 0.107143 0 55.845 -9.76667e-08 
594 1 0.214286 0 0 55.845 -3.44785e-08 
595 1 0.25 0.0357143 0 55.845 -2.29339e-08 
313 1 0.285883 0.10701 0.20935 55.845 -3.16606e-07 
323 1 0.250015 -5.37334e-05 0.209555 55.845 -4.1131e-07 
325 1 0.285662 0.0356685 0.209372 55.845 -3.13232e-07 
327 1 0.321551 0.0713944 0.209331 55.845 -3.54472e-07 
329 1 0.357153 0.107027 0.209502 55.845 -2.44898e-07 
337 1 0.321486 1.03993e-05 0.209341 55.845 -4.13067e-07 
339 1 0.357203 0.0356994 0.209369 55.845 -3.80283e-07 
415 1 0.285703 0.107149 0.12491 55.845 -5.61493e-08 
425 1 0.250136 -1.97767e-05 0.124945 55.845 -1.67249e-07 
427 1 0.285651 0.0357263 0.124984 55.845 -2.34393e-07 
428 1 0.285791 0.0714276 0.167015 55.845 1.98872e-07 
429 1 0.321514 0.0713768 0.125104 55.845 -1.52482e-07 
430 1 0.321481 0.107138 0.167228 55.845 1.64744e-07 
431 1 0.357105 0.107144 0.125097 55.845 -1.31016e-07 
439 1 0.321394 6.22741e-05 0.125165 55.845 -1.87845e-07 
440 1 0.321493 0.0357193 0.167061 55.845 1.78267e-07 
441 1 0.357238 0.0358418 0.125053 55.845 -1.36982e-07 
442 1 0.357174 0.0713456 0.167043 55.845 1.34584e-07 
517 1 0.285714 0.107143 0.0416667 55.845 2.72521e-07 
527 1 0.25 0 0.0416667 55.845 3.0981e-07 
529 1 0.285714 0.0357143 0.0416667 55.845 2.24946e-07 
530 1 0.285667 0.0714013 0.0837952 55.845 -1.66168e-07 
531 1 0.321429 0.0714286 0.0416667 55.845 2.08876e-07 
532 1 0.321417 0.10711 0.0837614 55.845 -1.88405e-07 
533 1 0.357143 0.107143 0.0416667 55.845 1.92797e-07 
603 1 0.357143 0.0714286 0 55.845 -1.59723e-07 
541 1 0.321429 0 0.0416667 55.845 2.48587e-07 
542 1 0.321414 0.0357308 0.0837357 55.845 -2.47867e-07 
543 1 0.357143 0.0357143 0.0416667 55.845 2.27608e-07 
544 1 0.357088 0.0714608 0.083755 55.845 -1.86755e-07 
602 1 0.321429 0.0357143 0 55.845 -1.07551e-07 
596 1 0.285714 0.0714286 0 55.845 -8.58077e-08 
597 1 0.321429 0.107143 0 55.845 -1.19518e-07 
612 1 0.464286 0.0357143 0 55.845 -8.52352e-08 
611 1 0.428571 0 0 55.845 -1.32057e-07 
610 1 0.464286 0.107143 0 55.845 -2.72465e-08 
609 1 0.428571 0.0714286 0 55.845 -1.30674e-07 
608 1 0.392857 0.0357143 0 55.845 -1.61045e-07 
341 1 0.39283 0.0713477 0.209358 55.845 -2.38609e-07 
343 1 0.428645 0.107117 0.209622 55.845 -2.7103e-07 
348 1 0.39289 9.056e-05 0.209481 55.845 -3.202e-07 
350 1 0.428575 0.0356482 0.209466 55.845 -2.79979e-07 
352 1 0.464253 0.0714138 0.209434 55.845 -2.00234e-07 
355 1 0.4643 5.93466e-05 0.209186 55.845 -3.16034e-07 
443 1 0.392913 0.0714314 0.125154 55.845 -7.83158e-08 
444 1 0.392862 0.107133 0.167294 55.845 2.54201e-07 
445 1 0.428619 0.107133 0.125222 55.845 -1.67382e-07 
604 1 0.392857 0.107143 0 55.845 -1.19427e-07 
450 1 0.392903 2.44156e-05 0.125035 55.845 -1.59325e-07 
451 1 0.392892 0.0357066 0.167026 55.845 2.59544e-07 
452 1 0.428676 0.0357463 0.124963 55.845 -7.45376e-08 
453 1 0.42853 0.0713975 0.167179 55.845 2.54466e-07 
454 1 0.464257 0.0713163 0.125102 55.845 -1.65984e-07 
455 1 0.464362 0.107166 0.167267 55.845 2.21096e-07 
456 1 0.428647 6.22033e-05 0.167011 55.845 3.88032e-07 
457 1 0.464355 4.54528e-06 0.124983 55.845 -1.67846e-07 
458 1 0.4643 0.0357099 0.166998 55.845 3.22221e-07 
545 1 0.392857 0.0714286 0.0416667 55.845 2.45205e-07 
546 1 0.392867 0.107169 0.083895 55.845 -1.38121e-07 
547 1 0.428571 0.107143 0.0416667 55.845 2.58715e-07 
552 1 0.392857 0 0.0416667 55.845 1.84968e-07 
553 1 0.392832 0.0357761 0.0837288 55.845 -9.42657e-08 
554 1 0.428571 0.0357143 0.0416667 55.845 2.01962e-07 
555 1 0.428535 0.0714371 0.083753 55.845 -1.32889e-07 
556 1 0.464286 0.0714286 0.0416667 55.845 2.44082e-07 
557 1 0.464271 0.107106 0.0839487 55.845 -2.04008e-08 
558 1 0.42856 -1.23904e-05 0.0837231 55.845 -1.27523e-07 
559 1 0.464286 0 0.0416667 55.845 1.90227e-07 
560 1 0.464293 0.0356612 0.0836973 55.845 -1.03407e-07 
255 1 2.1166e-05 0.17858 0.2094 55.845 -3.87695e-07 
257 1 0.0356951 0.21433 0.209534 55.845 -4.37272e-07 
261 1 0.0356891 0.1429 0.209228 55.845 -2.81113e-07 
263 1 0.0713554 0.178527 0.209428 55.845 -3.56449e-07 
265 1 0.107122 0.214279 0.209627 55.845 -3.6833e-07 
273 1 0.107124 0.142925 0.209374 55.845 -2.84123e-07 
357 1 -1.54788e-05 0.178598 0.12501 55.845 -1.63142e-07 
358 1 2.49656e-05 0.214292 0.167091 55.845 2.37322e-07 
359 1 0.0358091 0.214352 0.125105 55.845 -2.72221e-07 
360 1 0.0357643 0.25 0.167158 55.845 1.53304e-07 
362 1 -4.83856e-05 0.142925 0.167111 55.845 3.06305e-07 
363 1 0.0356841 0.142811 0.125017 55.845 -2.52744e-07 
364 1 0.0356876 0.178632 0.167111 55.845 2.55236e-07 
365 1 0.0714421 0.178529 0.124984 55.845 -3.41573e-07 
366 1 0.0715052 0.214323 0.167139 55.845 1.77145e-07 
367 1 0.107143 0.214355 0.1251 55.845 -2.04075e-07 
368 1 0.107205 0.250006 0.167305 55.845 2.99082e-07 
374 1 0.0714343 0.142906 0.167015 55.845 2.06198e-07 
375 1 0.107119 0.142847 0.124994 55.845 -2.36907e-07 
376 1 0.107049 0.178631 0.16712 55.845 2.48738e-07 
459 1 0 0.178571 0.0416667 55.845 2.04738e-07 
460 1 4.84426e-05 0.214352 0.083794 55.845 -1.36345e-07 
461 1 0.0357143 0.214286 0.0416667 55.845 2.63184e-07 
462 1 0.0357848 0.249974 0.08392 55.845 -1.55728e-07 
464 1 -6.36252e-06 0.14284 0.0836783 55.845 -1.89532e-07 
465 1 0.0357143 0.142857 0.0416667 55.845 2.10755e-07 
466 1 0.0357351 0.178632 0.0838866 55.845 -8.82999e-08 
467 1 0.0714286 0.178571 0.0416667 55.845 1.90305e-07 
468 1 0.0715336 0.214352 0.0838798 55.845 -2.45823e-07 
469 1 0.107143 0.214286 0.0416667 55.845 1.97161e-07 
470 1 0.107203 0.25004 0.0838357 55.845 -9.44116e-08 
476 1 0.0714275 0.142894 0.0839397 55.845 -1.29551e-07 
477 1 0.107143 0.142857 0.0416667 55.845 2.29453e-07 
478 1 0.107098 0.178576 0.0837604 55.845 -1.68833e-07 
561 1 0 0.214286 0 55.845 -8.5385e-08 
562 1 0.0357143 0.25 0 55.845 -6.77232e-08 
563 1 0 0.142857 0 55.845 -1.89694e-07 
564 1 0.0357143 0.178571 0 55.845 -1.6473e-07 
565 1 0.0714286 0.214286 0 55.845 -1.78804e-07 
566 1 0.107143 0.25 0 55.845 -1.04558e-07 
569 1 0.0714286 0.142857 0 55.845 -1.34151e-07 
570 1 0.107143 0.178571 0 55.845 -1.51057e-07 
275 1 0.142833 0.178494 0.209331 55.845 -3.19958e-07 
277 1 0.178562 0.214311 0.209437 55.845 -3.59169e-07 
287 1 0.178622 0.142924 0.209245 55.845 -3.34531e-07 
289 1 0.214351 0.178646 0.209303 55.845 -3.28922e-07 
291 1 0.250099 0.214491 0.209465 55.845 -4.24542e-07 
301 1 0.250058 0.142842 0.209215 55.845 -2.67378e-07 
377 1 0.142752 0.178606 0.124891 55.845 -1.98088e-07 
378 1 0.142932 0.214244 0.167173 55.845 2.25121e-07 
379 1 0.178562 0.214239 0.125129 55.845 -1.76098e-07 
388 1 0.142788 0.142895 0.167092 55.845 2.28459e-07 
389 1 0.178468 0.142844 0.125024 55.845 -1.207e-07 
390 1 0.178615 0.178678 0.167022 55.845 1.7562e-07 
391 1 0.214343 0.178564 0.125133 55.845 -1.48191e-07 
392 1 0.214358 0.214261 0.167242 55.845 2.14151e-07 
393 1 0.250045 0.214284 0.125062 55.845 -1.33491e-07 
402 1 0.21433 0.142841 0.167169 55.845 1.88662e-07 
403 1 0.24994 0.142944 0.125046 55.845 -7.16147e-08 
404 1 0.249993 0.178697 0.167017 55.845 2.52585e-07 
479 1 0.142857 0.178571 0.0416667 55.845 2.57805e-07 
480 1 0.142801 0.214335 0.0838401 55.845 -1.19323e-07 
481 1 0.178571 0.214286 0.0416667 55.845 2.50092e-07 
490 1 0.142828 0.1428 0.0837982 55.845 -1.17644e-07 
491 1 0.178571 0.142857 0.0416667 55.845 2.89385e-07 
492 1 0.178593 0.178532 0.0838384 55.845 -1.2733e-07 
493 1 0.214286 0.178571 0.0416667 55.845 3.03612e-07 
494 1 0.21431 0.21422 0.0837374 55.845 -9.8576e-08 
495 1 0.25 0.214286 0.0416667 55.845 2.35985e-07 
504 1 0.214258 0.142807 0.0838688 55.845 -4.74537e-08 
505 1 0.25 0.142857 0.0416667 55.845 2.95062e-07 
506 1 0.250051 0.178556 0.0836673 55.845 -8.03642e-10 
571 1 0.142857 0.214286 0 55.845 -1.34462e-07 
576 1 0.142857 0.142857 0 55.845 -9.11287e-08 
577 1 0.178571 0.178571 0 55.845 -5.80807e-08 
578 1 0.214286 0.214286 0 55.845 -6.59681e-08 
583 1 0.214286 0.142857 0 55.845 -1.0876e-07 
584 1 0.25 0.178571 0 55.845 -8.57104e-08 
303 1 0.285711 0.178658 0.209367 55.845 -2.18162e-07 
305 1 0.321423 0.214293 0.209438 55.845 -2.62552e-07 
315 1 0.321396 0.142775 0.209413 55.845 -2.53276e-07 
317 1 0.357175 0.178566 0.209345 55.845 -1.86446e-07 
405 1 0.285789 0.178562 0.125035 55.845 -4.3997e-08 
406 1 0.285747 0.214394 0.167193 55.845 3.45669e-07 
407 1 0.321492 0.214348 0.125102 55.845 -8.29576e-08 
416 1 0.285661 0.142844 0.16714 55.845 2.85535e-07 
417 1 0.321358 0.142803 0.125175 55.845 -3.59597e-08 
418 1 0.321353 0.178562 0.167346 55.845 3.18825e-07 
419 1 0.357029 0.178577 0.125189 55.845 -1.44001e-07 
420 1 0.357021 0.214299 0.167175 55.845 3.55474e-07 
432 1 0.357148 0.142899 0.167213 55.845 2.31523e-07 
507 1 0.285714 0.178571 0.0416667 55.845 2.64415e-07 
508 1 0.285742 0.214325 0.0838036 55.845 -3.76003e-08 
509 1 0.321429 0.214286 0.0416667 55.845 2.87146e-07 
518 1 0.285682 0.142755 0.0837358 55.845 -9.37761e-08 
519 1 0.321429 0.142857 0.0416667 55.845 2.39018e-07 
520 1 0.321483 0.17855 0.0837756 55.845 -7.05206e-08 
521 1 0.357143 0.178571 0.0416667 55.845 2.64109e-07 
522 1 0.35713 0.214191 0.0837298 55.845 -7.05097e-08 
534 1 0.357051 0.142841 0.0837232 55.845 -1.98753e-07 
585 1 0.285714 0.214286 0 55.845 -1.27469e-07 
590 1 0.285714 0.142857 0 55.845 -1.11786e-07 
591 1 0.321429 0.178571 0 55.845 -6.00696e-08 
592 1 0.357143 0.214286 0 55.845 -6.5412e-08 
598 1 0.357143 0.142857 0 55.845 -5.46191e-08 
319 1 0.392887 0.21435 0.209433 55.845 -1.89957e-07 
321 1 0.428553 0.250035 0.209567 55.845 -3.13297e-07 
331 1 0.392902 0.142918 0.209485 55.845 -2.6623e-07 
333 1 0.428569 0.178656 0.209302 55.845 -2.82571e-07 
335 1 0.464262 0.214374 0.209478 55.845 -2.71634e-07 
345 1 0.464243 0.142889 0.209544 55.845 -4.58454e-07 
606 1 0.464286 0.178571 0 55.845 -4.48016e-08 
421 1 0.392785 0.21428 0.125345 55.845 -6.09416e-08 
422 1 0.392867 0.250073 0.167162 55.845 3.68783e-07 
423 1 0.428542 0.250017 0.124957 55.845 -1.00422e-07 
433 1 0.392789 0.142824 0.125114 55.845 -1.12074e-07 
434 1 0.392821 0.178533 0.167151 55.845 2.71068e-07 
435 1 0.428525 0.178483 0.125143 55.845 -1.13738e-07 
436 1 0.428594 0.214377 0.167144 55.845 2.84157e-07 
437 1 0.464246 0.21425 0.125081 55.845 -1.67614e-07 
605 1 0.428571 0.142857 0 55.845 -4.91408e-08 
446 1 0.428497 0.142798 0.167301 55.845 1.82894e-07 
447 1 0.464173 0.142816 0.125216 55.845 -7.15442e-08 
448 1 0.46426 0.178535 0.167258 55.845 2.16242e-07 
523 1 0.392857 0.214286 0.0416667 55.845 2.71319e-07 
524 1 0.392886 0.249842 0.0837469 55.845 1.23457e-08 
525 1 0.428571 0.25 0.0416667 55.845 2.26001e-07 
535 1 0.392857 0.142857 0.0416667 55.845 2.56003e-07 
536 1 0.392743 0.178593 0.0839051 55.845 -1.37683e-07 
537 1 0.428571 0.178571 0.0416667 55.845 2.99852e-07 
538 1 0.42859 0.214215 0.0838993 55.845 -1.0263e-07 
539 1 0.464286 0.214286 0.0416667 55.845 2.44657e-07 
548 1 0.428487 0.142825 0.0838026 55.845 -9.91928e-08 
549 1 0.464286 0.142857 0.0416667 55.845 3.48407e-07 
550 1 0.464268 0.1785 0.0838624 55.845 -2.79719e-08 
593 1 0.392857 0.25 0 55.845 -7.38496e-08 
599 1 0.392857 0.178571 0 55.845 -5.06573e-08 
600 1 0.428571 0.214286 0 55.845 -7.70116e-08 
3 1 -2.29268e-05 0.107208 0.461664 55.845 4.61192e-07 
7 1 5.02038e-05 0.0357482 0.461458 55.845 3.77074e-07 
8 1 0.0357498 0.0714243 0.461464 55.845 3.53744e-07 
9 1 0.0715402 0.107181 0.461559 55.845 2.95482e-07 
13 1 0.0357484 -9.98647e-05 0.461617 55.845 3.6759e-07 
14 1 0.0714273 0.0356846 0.46147 55.845 3.64328e-07 
15 1 0.107162 0.0714689 0.461496 55.845 3.60817e-07 
20 1 0.10724 -2.21215e-05 0.461537 55.845 3.44989e-07 
55 1 6.27347e-05 0.107178 0.377639 55.845 -4.18138e-07 
63 1 -7.43341e-07 0.0356849 0.377594 55.845 -3.26817e-07 
64 1 -1.78768e-05 0.0714987 0.420098 55.845 -2.85285e-07 
65 1 0.0357025 0.0714093 0.377638 55.845 -2.8617e-07 
66 1 0.0357591 0.107171 0.420127 55.845 -2.94262e-07 
67 1 0.0714959 0.107196 0.377709 55.845 -2.04003e-07 
74 1 0.00015923 -2.27083e-05 0.419987 55.845 -3.39412e-07 
75 1 0.0357836 0.00011494 0.377577 55.845 -2.56946e-07 
76 1 0.0356929 0.0356913 0.419977 55.845 -2.0324e-07 
77 1 0.0714528 0.0357132 0.377702 55.845 -3.44362e-07 
78 1 0.0714322 0.0713771 0.420135 55.845 -2.27728e-07 
79 1 0.107159 0.0715293 0.377706 55.845 -3.54647e-07 
80 1 0.10728 0.107203 0.420054 55.845 -1.7628e-07 
88 1 0.0714573 -7.27545e-05 0.41995 55.845 -2.04613e-07 
89 1 0.107279 1.32491e-05 0.377567 55.845 -3.54511e-07 
90 1 0.107206 0.0357368 0.420087 55.845 -2.94011e-07 
157 1 -5.05611e-06 0.107124 0.292109 55.845 8.69509e-08 
165 1 3.07223e-05 0.0357034 0.291891 55.845 1.00836e-07 
166 1 9.93939e-08 0.0713744 0.334449 55.845 3.77108e-07 
167 1 0.0356583 0.0714388 0.291991 55.845 2.03765e-07 
168 1 0.035653 0.107198 0.334561 55.845 4.60516e-07 
169 1 0.0714216 0.107219 0.291972 55.845 1.75085e-07 
176 1 0.000133335 4.8165e-05 0.334395 55.845 2.62827e-07 
177 1 0.0357949 4.77862e-05 0.291833 55.845 1.68936e-07 
178 1 0.0357979 0.0357437 0.33427 55.845 2.96303e-07 
179 1 0.0715194 0.0356705 0.292115 55.845 1.94554e-07 
180 1 0.0714892 0.0714386 0.334442 55.845 4.93403e-07 
181 1 0.107114 0.0714238 0.291949 55.845 1.92959e-07 
182 1 0.107222 0.107191 0.334461 55.845 4.51503e-07 
190 1 0.0714606 -6.15885e-05 0.334499 55.845 4.14214e-07 
191 1 0.107175 -7.58675e-05 0.292018 55.845 1.83207e-07 
192 1 0.107209 0.0356965 0.33449 55.845 3.38499e-07 
268 1 -2.74564e-06 0.0714301 0.251184 55.845 -5.91717e-08 
270 1 0.0356997 0.107253 0.251146 55.845 1.02265e-07 
278 1 0.0001472 -2.96319e-05 0.250869 55.845 -7.85683e-08 
280 1 0.0357669 0.0357904 0.251145 55.845 -4.01578e-08 
282 1 0.0714402 0.0714697 0.251084 55.845 -9.71876e-09 
284 1 0.107154 0.1072 0.251037 55.845 -5.36514e-08 
292 1 0.0714923 5.04467e-05 0.250967 55.845 5.22357e-08 
294 1 0.107158 0.0357066 0.25104 55.845 -2.41124e-08 
16 1 0.143053 0.107237 0.461562 55.845 4.95834e-07 
21 1 0.142976 0.0357434 0.461673 55.845 4.27257e-07 
22 1 0.178598 0.071424 0.461596 55.845 3.80512e-07 
23 1 0.214329 0.107138 0.461421 55.845 5.141e-07 
27 1 0.178582 3.70747e-06 0.461705 55.845 3.43173e-07 
28 1 0.214405 0.0357148 0.46158 55.845 3.87486e-07 
29 1 0.250078 0.0713822 0.461547 55.845 3.9384e-07 
81 1 0.142928 0.107164 0.377701 55.845 -3.24676e-07 
91 1 0.142941 0.0358303 0.377643 55.845 -3.61894e-07 
92 1 0.14291 0.0714648 0.42005 55.845 -2.30591e-07 
93 1 0.178636 0.0714003 0.377525 55.845 -3.59722e-07 
94 1 0.178596 0.107185 0.420016 55.845 -1.73004e-07 
95 1 0.214235 0.107054 0.377684 55.845 -1.92817e-07 
102 1 0.142907 -4.89225e-05 0.419966 55.845 -2.74372e-07 
103 1 0.178546 4.36219e-05 0.377637 55.845 -3.19196e-07 
104 1 0.178529 0.035666 0.419999 55.845 -2.49521e-07 
105 1 0.214273 0.0357122 0.37756 55.845 -3.3482e-07 
106 1 0.214268 0.0713675 0.420001 55.845 -2.06563e-07 
107 1 0.249988 0.0713635 0.377605 55.845 -2.53102e-07 
108 1 0.250044 0.107125 0.419899 55.845 -2.44288e-07 
118 1 0.21428 4.6121e-06 0.420051 55.845 -3.06337e-07 
120 1 0.250029 0.03575 0.419895 55.845 -3.29394e-07 
183 1 0.142855 0.107238 0.292033 55.845 2.25796e-07 
193 1 0.142879 0.0357371 0.291977 55.845 2.1142e-07 
194 1 0.142927 0.0715422 0.334485 55.845 3.03376e-07 
195 1 0.178622 0.0715019 0.292155 55.845 2.16018e-07 
196 1 0.178668 0.107091 0.334637 55.845 3.11655e-07 
197 1 0.214345 0.107151 0.291913 55.845 2.47062e-07 
204 1 0.142836 -6.90167e-05 0.334499 55.845 3.37931e-07 
205 1 0.178534 -3.47505e-06 0.291973 55.845 1.72089e-07 
206 1 0.178578 0.0356786 0.334328 55.845 2.13253e-07 
207 1 0.214219 0.0356914 0.291993 55.845 2.49679e-07 
208 1 0.214368 0.0713589 0.334473 55.845 2.52787e-07 
209 1 0.249935 0.0714854 0.292002 55.845 3.11835e-07 
210 1 0.249981 0.107117 0.334304 55.845 3.05561e-07 
220 1 0.21431 4.75238e-05 0.334367 55.845 2.89915e-07 
222 1 0.250047 0.035705 0.334374 55.845 3.06711e-07 
296 1 0.142918 0.0715247 0.25114 55.845 -1.19573e-07 
298 1 0.178522 0.107173 0.250926 55.845 -1.48928e-07 
306 1 0.142836 -5.84825e-06 0.250973 55.845 -2.09776e-08 
308 1 0.178601 0.0356968 0.250992 55.845 -5.36749e-08 
310 1 0.214362 0.0714086 0.251001 55.845 -7.03188e-08 
312 1 0.25005 0.107171 0.250994 55.845 -2.06808e-07 
322 1 0.214246 -4.6858e-05 0.250899 55.845 -3.47226e-08 
324 1 0.249961 0.0356477 0.250961 55.845 -5.65747e-08 
30 1 0.285733 0.107143 0.461531 55.845 5.02811e-07 
35 1 0.250019 3.30702e-05 0.461596 55.845 4.44317e-07 
36 1 0.28569 0.035652 0.461532 55.845 4.39798e-07 
37 1 0.321431 0.0713979 0.461461 55.845 6.45193e-07 
38 1 0.357086 0.107092 0.461606 55.845 4.66906e-07 
42 1 0.32139 -6.33489e-05 0.461545 55.845 4.95265e-07 
43 1 0.357162 0.0357231 0.461645 55.845 5.23681e-07 
109 1 0.285859 0.107158 0.377643 55.845 -2.45523e-07 
119 1 0.24996 -5.03986e-07 0.377514 55.845 -3.01297e-07 
121 1 0.285714 0.0357517 0.377482 55.845 -2.78624e-07 
122 1 0.285763 0.0714248 0.419886 55.845 -2.57211e-07 
123 1 0.321505 0.0714435 0.377494 55.845 -3.01734e-07 
124 1 0.321431 0.107006 0.420131 55.845 -2.7115e-07 
125 1 0.357098 0.107118 0.377572 55.845 -2.67944e-07 
133 1 0.3214 1.89842e-05 0.377535 55.845 -2.13322e-07 
134 1 0.321444 0.0356986 0.42004 55.845 -6.64727e-08 
135 1 0.357212 0.0357244 0.377479 55.845 -3.33324e-07 
136 1 0.357235 0.0713742 0.419847 55.845 -1.56007e-07 
211 1 0.285782 0.107113 0.291867 55.845 2.56725e-07 
221 1 0.250111 -1.69698e-05 0.291863 55.845 1.17433e-07 
223 1 0.285662 0.0356091 0.291987 55.845 1.85184e-07 
224 1 0.285701 0.0714195 0.334373 55.845 3.37199e-07 
225 1 0.321397 0.0714133 0.291881 55.845 1.72795e-07 
226 1 0.32146 0.107172 0.334296 55.845 3.75089e-07 
227 1 0.357252 0.107182 0.291962 55.845 1.93931e-07 
235 1 0.321459 4.59921e-05 0.291989 55.845 2.12299e-07 
236 1 0.32148 0.0357921 0.3344 55.845 3.45841e-07 
237 1 0.357078 0.0357212 0.291874 55.845 1.38433e-07 
238 1 0.357164 0.071374 0.334299 55.845 2.90005e-07 
326 1 0.285667 0.0713857 0.250934 55.845 -1.54736e-07 
328 1 0.321442 0.107168 0.250951 55.845 -1.30659e-07 
338 1 0.321415 0.0358057 0.251076 55.845 -1.42683e-07 
340 1 0.357102 0.0713496 0.251045 55.845 -9.60494e-08 
44 1 0.39286 0.0714289 0.461628 55.845 4.82004e-07 
45 1 0.428545 0.107145 0.461532 55.845 4.23921e-07 
47 1 0.392816 -3.44571e-05 0.461643 55.845 3.69731e-07 
48 1 0.428568 0.0357333 0.461514 55.845 3.15861e-07 
49 1 0.464212 0.0713707 0.461595 55.845 4.62781e-07 
50 1 0.464212 7.23042e-05 0.461565 55.845 2.31893e-07 
137 1 0.392915 0.0714115 0.377528 55.845 -2.74517e-07 
138 1 0.392832 0.107151 0.420103 55.845 -2.20288e-07 
139 1 0.428603 0.107126 0.377552 55.845 -3.16578e-07 
144 1 0.392734 -4.43251e-05 0.377567 55.845 -3.43297e-07 
145 1 0.392827 0.0356771 0.420151 55.845 -3.04486e-07 
146 1 0.428536 0.035675 0.377697 55.845 -3.00681e-07 
147 1 0.428549 0.0715147 0.420074 55.845 -3.57114e-07 
148 1 0.464191 0.0714665 0.377649 55.845 -2.9206e-07 
149 1 0.464253 0.107165 0.420077 55.845 -3.29616e-07 
150 1 0.428504 3.01782e-05 0.420048 55.845 -4.1568e-07 
151 1 0.464353 4.68781e-05 0.377612 55.845 -3.44358e-07 
152 1 0.464267 0.0356985 0.419975 55.845 -3.07707e-07 
239 1 0.392857 0.0714893 0.291894 55.845 1.70593e-07 
240 1 0.39284 0.107212 0.334393 55.845 3.39404e-07 
241 1 0.428596 0.107145 0.291911 55.845 1.90556e-07 
246 1 0.392832 -5.36182e-05 0.29192 55.845 2.25828e-07 
247 1 0.392852 0.0356445 0.334307 55.845 2.91439e-07 
248 1 0.428592 0.035647 0.291924 55.845 1.02134e-07 
249 1 0.428542 0.0714214 0.334308 55.845 3.35822e-07 
250 1 0.464219 0.0714911 0.291825 55.845 1.94582e-07 
251 1 0.464281 0.107179 0.334494 55.845 3.11527e-07 
252 1 0.42859 8.63659e-05 0.334537 55.845 3.13627e-07 
253 1 0.464249 7.66818e-05 0.291964 55.845 1.0138e-07 
254 1 0.464289 0.03584 0.334305 55.845 3.05579e-07 
342 1 0.392927 0.107139 0.251017 55.845 -1.14242e-07 
349 1 0.392857 0.0357331 0.251044 55.845 -8.16162e-08 
351 1 0.428459 0.0713334 0.250925 55.845 -3.39266e-08 
353 1 0.464356 0.107252 0.251054 55.845 -7.74313e-08 
354 1 0.42858 1.93788e-05 0.251041 55.845 1.61491e-08 
356 1 0.464263 0.0358225 0.250952 55.845 -1.27518e-08 
1 1 1.5149e-05 0.178649 0.461641 55.845 3.93569e-07 
2 1 0.0357202 0.214259 0.461725 55.845 4.97347e-07 
4 1 0.035789 0.142937 0.461584 55.845 3.77217e-07 
5 1 0.0714691 0.178462 0.461592 55.845 4.06555e-07 
6 1 0.107151 0.214343 0.461561 55.845 3.81349e-07 
10 1 0.10715 0.142857 0.461574 55.845 4.64581e-07 
51 1 -4.01562e-05 0.178514 0.377629 55.845 -3.65031e-07 
52 1 -5.08706e-05 0.214312 0.420285 55.845 -3.66735e-07 
53 1 0.0355694 0.214277 0.377669 55.845 -3.00018e-07 
54 1 0.0356913 0.250051 0.419977 55.845 -2.29969e-07 
56 1 3.4647e-06 0.142861 0.420243 55.845 -2.60968e-07 
57 1 0.0356918 0.142849 0.377826 55.845 -4.22735e-07 
58 1 0.035689 0.178621 0.419907 55.845 -1.67762e-07 
59 1 0.0714954 0.178663 0.377595 55.845 -2.32224e-07 
60 1 0.0713869 0.214418 0.419945 55.845 1.49383e-08 
61 1 0.107322 0.214237 0.377554 55.845 -2.8226e-07 
62 1 0.107171 0.249992 0.419956 55.845 -1.89478e-07 
68 1 0.0715391 0.142935 0.420019 55.845 -1.88805e-07 
69 1 0.10726 0.142965 0.377594 55.845 -2.39989e-07 
70 1 0.107136 0.178555 0.419936 55.845 -3.91104e-08 
153 1 3.2661e-05 0.178509 0.292194 55.845 6.73604e-08 
154 1 -3.69045e-05 0.21426 0.334637 55.845 2.97857e-07 
155 1 0.0356853 0.214214 0.291897 55.845 1.23898e-07 
156 1 0.0356683 0.249978 0.334405 55.845 3.78424e-07 
158 1 8.08677e-05 0.142839 0.334603 55.845 3.29101e-07 
159 1 0.0356701 0.142932 0.292183 55.845 1.44981e-07 
160 1 0.0357653 0.178581 0.334454 55.845 3.6162e-07 
161 1 0.0715286 0.178548 0.291981 55.845 1.80691e-07 
162 1 0.0714272 0.214362 0.334536 55.845 4.78657e-07 
163 1 0.107117 0.214303 0.29189 55.845 1.36797e-07 
164 1 0.107227 0.249931 0.334311 55.845 3.97854e-07 
170 1 0.0714965 0.142851 0.334576 55.845 4.96462e-07 
171 1 0.107134 0.142857 0.291763 55.845 2.10333e-07 
172 1 0.107155 0.178611 0.334263 55.845 5.21637e-07 
256 1 2.19935e-05 0.214346 0.25105 55.845 -1.29008e-07 
258 1 0.0357017 0.250016 0.250963 55.845 -2.03027e-07 
260 1 -1.89814e-05 0.142927 0.251092 55.845 -4.67194e-09 
262 1 0.0356293 0.178523 0.25098 55.845 -2.15153e-08 
264 1 0.071379 0.214228 0.251127 55.845 -1.21528e-07 
266 1 0.10716 0.249974 0.251098 55.845 -8.84199e-08 
272 1 0.0713994 0.142849 0.25108 55.845 1.89369e-08 
274 1 0.10718 0.178622 0.25095 55.845 -3.16514e-08 
11 1 0.142851 0.178621 0.461679 55.845 4.74358e-07 
12 1 0.178652 0.2143 0.461664 55.845 3.99797e-07 
17 1 0.178571 0.142953 0.461722 55.845 3.47393e-07 
18 1 0.214405 0.178506 0.461648 55.845 4.52319e-07 
19 1 0.25 0.214297 0.461674 55.845 4.63642e-07 
24 1 0.249981 0.142829 0.461618 55.845 3.44794e-07 
71 1 0.142933 0.178547 0.377486 55.845 -2.80786e-07 
72 1 0.142854 0.214332 0.420057 55.845 -1.94181e-07 
73 1 0.17853 0.214323 0.377615 55.845 -3.07385e-07 
82 1 0.142925 0.142889 0.420122 55.845 -1.13751e-07 
83 1 0.178581 0.142906 0.37757 55.845 -2.15319e-07 
84 1 0.178623 0.178648 0.419996 55.845 -2.19013e-07 
85 1 0.214355 0.178536 0.377718 55.845 -2.99823e-07 
86 1 0.214283 0.214265 0.420203 55.845 -1.76966e-07 
87 1 0.250007 0.214297 0.377622 55.845 -3.50377e-07 
96 1 0.214206 0.142839 0.420131 55.845 -3.20221e-07 
97 1 0.250034 0.142878 0.377774 55.845 -2.82798e-07 
98 1 0.250011 0.178582 0.420062 55.845 -3.45756e-07 
173 1 0.142937 0.178479 0.2919 55.845 1.83281e-07 
174 1 0.142858 0.214279 0.334364 55.845 4.17173e-07 
175 1 0.178592 0.214308 0.291898 55.845 1.4665e-07 
184 1 0.143054 0.142853 0.334441 55.845 4.24723e-07 
185 1 0.178649 0.14287 0.291785 55.845 1.88463e-07 
186 1 0.178637 0.178577 0.334309 55.845 3.14402e-07 
187 1 0.214346 0.178582 0.291952 55.845 1.6132e-07 
188 1 0.214395 0.214191 0.334402 55.845 3.29927e-07 
189 1 0.25006 0.214395 0.291977 55.845 1.46173e-08 
198 1 0.214421 0.142881 0.334324 55.845 3.70708e-07 
199 1 0.250119 0.142833 0.292018 55.845 1.49049e-07 
200 1 0.250035 0.178552 0.334344 55.845 2.71723e-07 
276 1 0.142885 0.214199 0.250989 55.845 -2.87428e-08 
286 1 0.142922 0.142877 0.251052 55.845 -1.39029e-07 
288 1 0.178637 0.178598 0.250967 55.845 -1.26329e-07 
290 1 0.214374 0.214359 0.251035 55.845 -6.87734e-08 
300 1 0.214386 0.142764 0.250942 55.845 -9.70505e-08 
302 1 0.250055 0.178596 0.250934 55.845 -7.36044e-08 
25 1 0.285676 0.178597 0.46167 55.845 3.27603e-07 
26 1 0.321416 0.214283 0.46164 55.845 2.94315e-07 
31 1 0.321327 0.142872 0.461559 55.845 4.10306e-07 
32 1 0.357108 0.178506 0.461551 55.845 2.43251e-07 
99 1 0.285806 0.178533 0.377612 55.845 -3.07767e-07 
100 1 0.285681 0.214293 0.420126 55.845 -3.30682e-07 
101 1 0.321363 0.21425 0.377735 55.845 -4.43309e-07 
110 1 0.285712 0.142828 0.420092 55.845 -3.44403e-07 
111 1 0.321548 0.142813 0.377631 55.845 -3.37528e-07 
112 1 0.321443 0.178482 0.419956 55.845 -3.38094e-07 
113 1 0.357128 0.178621 0.377511 55.845 -3.84102e-07 
114 1 0.357089 0.214269 0.419977 55.845 -3.06009e-07 
126 1 0.357117 0.142833 0.420148 55.845 -2.24316e-07 
201 1 0.285761 0.178603 0.292018 55.845 1.78062e-07 
202 1 0.28577 0.214298 0.33439 55.845 3.29049e-07 
203 1 0.321498 0.214299 0.291962 55.845 2.0564e-07 
212 1 0.285829 0.142862 0.33433 55.845 3.02858e-07 
213 1 0.321482 0.142958 0.291886 55.845 2.42837e-07 
214 1 0.321574 0.178522 0.334293 55.845 3.07443e-07 