ITEM: TIMESTEP
5700
ITEM: NUMBER OF ATOMS
5880
ITEM: BOX BOUNDS pp pp ff
-27.9602 27.9602
-27.9603 27.9603
0 34.092
ITEM: ATOMS id type xs ys zs mass q 
259 1 0.000141566 0.107182 0.209506 55.845 2.32467e-08 
267 1 4.71302e-05 0.0356651 0.209538 55.845 6.02238e-08 
269 1 0.0357747 0.0714129 0.209404 55.845 5.91967e-08 
271 1 0.0714966 0.107146 0.209602 55.845 6.09976e-08 
279 1 0.0358185 -5.6171e-06 0.209611 55.845 8.18124e-08 
281 1 0.0714177 0.035698 0.209535 55.845 8.83331e-08 
283 1 0.10718 0.0712763 0.209511 55.845 9.11077e-08 
293 1 0.107187 -6.44661e-06 0.209766 55.845 7.97699e-08 
361 1 1.46417e-05 0.107151 0.125792 55.845 -6.4033e-08 
369 1 3.55943e-05 0.0357523 0.125642 55.845 -6.89241e-08 
370 1 7.79882e-05 0.071434 0.167085 55.845 -9.50033e-09 
371 1 0.0357621 0.071329 0.125732 55.845 -1.1557e-07 
372 1 0.0357814 0.107171 0.167164 55.845 -1.36972e-08 
373 1 0.0715055 0.107075 0.125852 55.845 -1.40437e-07 
380 1 1.17118e-05 2.47209e-05 0.166978 55.845 -1.18159e-08 
381 1 0.0357714 -5.7686e-05 0.125693 55.845 -3.78196e-08 
382 1 0.0357293 0.035694 0.166969 55.845 -3.79551e-08 
383 1 0.0714298 0.0357417 0.125834 55.845 -7.77221e-08 
384 1 0.0714186 0.0713724 0.16718 55.845 -5.13344e-08 
385 1 0.107124 0.0714369 0.125861 55.845 -1.37498e-07 
386 1 0.107175 0.107119 0.167082 55.845 -6.3139e-08 
394 1 0.0714984 -6.61862e-06 0.167134 55.845 -1.54968e-08 
395 1 0.107268 3.13078e-05 0.125692 55.845 -3.43586e-08 
396 1 0.107199 0.0356336 0.167226 55.845 -2.44594e-08 
463 1 0 0.107143 0.0416667 55.845 -5.11935e-07 
471 1 0 0.0357143 0.0416667 55.845 -4.88145e-07 
472 1 5.60113e-05 0.0714949 0.0839162 55.845 2.86954e-07 
473 1 0.0357143 0.0714286 0.0416667 55.845 -5.29862e-07 
474 1 0.0357995 0.107145 0.0840711 55.845 3.17559e-07 
475 1 0.0714286 0.107143 0.0416667 55.845 -5.60032e-07 
482 1 6.32152e-05 -3.76806e-05 0.0839045 55.845 2.92431e-07 
483 1 0.0357143 0 0.0416667 55.845 -4.67381e-07 
484 1 0.0357395 0.0357339 0.0839454 55.845 3.04912e-07 
485 1 0.0714286 0.0357143 0.0416667 55.845 -5.07434e-07 
486 1 0.0715051 0.071402 0.0840008 55.845 2.84859e-07 
487 1 0.107143 0.0714286 0.0416667 55.845 -5.34792e-07 
488 1 0.107183 0.107114 0.083949 55.845 2.77266e-07 
496 1 0.0715113 9.58897e-06 0.0841504 55.845 3.41022e-07 
497 1 0.107143 0 0.0416667 55.845 -4.77484e-07 
498 1 0.107125 0.0357577 0.083945 55.845 3.00801e-07 
567 1 0 0.0714286 0 55.845 4.08893e-08 
568 1 0.0357143 0.107143 0 55.845 4.38509e-08 
572 1 0 0 0 55.845 4.91303e-08 
573 1 0.0357143 0.0357143 0 55.845 4.059e-08 
574 1 0.0714286 0.0714286 0 55.845 2.68705e-08 
575 1 0.107143 0.107143 0 55.845 2.46463e-08 
579 1 0.0714286 0 0 55.845 8.35705e-08 
580 1 0.107143 0.0357143 0 55.845 4.5492e-08 
285 1 0.142886 0.107114 0.209562 55.845 5.58466e-08 
295 1 0.142933 0.0356787 0.209596 55.845 8.47435e-08 
297 1 0.178584 0.0715372 0.209784 55.845 6.89317e-08 
299 1 0.214266 0.107032 0.209738 55.845 4.93049e-08 
307 1 0.178601 -2.37114e-05 0.209614 55.845 6.15181e-08 
309 1 0.214207 0.0356848 0.209817 55.845 8.0291e-08 
311 1 0.249956 0.071358 0.209681 55.845 7.38491e-08 
387 1 0.142829 0.107129 0.125861 55.845 -1.30371e-07 
397 1 0.142903 0.0356971 0.125784 55.845 -6.8134e-08 
398 1 0.142984 0.0714281 0.167271 55.845 -4.51428e-08 
399 1 0.178603 0.0714418 0.125714 55.845 -8.35848e-08 
400 1 0.178632 0.107242 0.167077 55.845 -3.40272e-08 
401 1 0.214329 0.107108 0.125674 55.845 -8.07026e-08 
408 1 0.142892 -4.09904e-05 0.167237 55.845 -1.68337e-08 
409 1 0.178638 9.1832e-06 0.125729 55.845 -4.32894e-08 
410 1 0.178668 0.0356702 0.167159 55.845 -4.03469e-09 
411 1 0.214288 0.0357554 0.125655 55.845 -5.15645e-08 
412 1 0.214252 0.0713714 0.167131 55.845 -1.08671e-09 
413 1 0.249934 0.0713839 0.125719 55.845 -6.30898e-08 
414 1 0.249991 0.107138 0.167164 55.845 -5.68036e-09 
424 1 0.214298 1.48886e-05 0.167165 55.845 -9.098e-09 
426 1 0.24997 0.0356526 0.167213 55.845 1.19313e-08 
489 1 0.142857 0.107143 0.0416667 55.845 -5.42419e-07 
499 1 0.142857 0.0357143 0.0416667 55.845 -4.95075e-07 
500 1 0.142879 0.0714638 0.0839397 55.845 2.81808e-07 
501 1 0.178571 0.0714286 0.0416667 55.845 -5.06256e-07 
502 1 0.178629 0.107178 0.0840057 55.845 3.00404e-07 
503 1 0.214286 0.107143 0.0416667 55.845 -4.85493e-07 
510 1 0.142928 4.87644e-05 0.0839158 55.845 3.26979e-07 
511 1 0.178571 0 0.0416667 55.845 -4.61517e-07 
512 1 0.17863 0.0356881 0.0840027 55.845 3.14058e-07 
513 1 0.214286 0.0357143 0.0416667 55.845 -4.65205e-07 
514 1 0.214262 0.0714262 0.0838237 55.845 3.18055e-07 
515 1 0.25 0.0714286 0.0416667 55.845 -4.61399e-07 
516 1 0.249989 0.107151 0.0839132 55.845 3.27518e-07 
526 1 0.214339 5.16723e-06 0.083919 55.845 3.16486e-07 
528 1 0.25007 0.0357732 0.0838892 55.845 3.63582e-07 
581 1 0.142857 0.0714286 0 55.845 2.73875e-08 
582 1 0.178571 0.107143 0 55.845 5.09689e-08 
586 1 0.142857 0 0 55.845 8.23291e-08 
587 1 0.178571 0.0357143 0 55.845 6.86784e-08 
588 1 0.214286 0.0714286 0 55.845 7.43034e-08 
589 1 0.25 0.107143 0 55.845 7.00218e-08 
594 1 0.214286 0 0 55.845 9.44526e-08 
595 1 0.25 0.0357143 0 55.845 1.06593e-07 
313 1 0.285654 0.107066 0.209776 55.845 5.60133e-08 
323 1 0.249926 -5.50056e-05 0.209623 55.845 8.3525e-08 
325 1 0.285622 0.0356811 0.209742 55.845 6.4803e-08 
327 1 0.321323 0.0713173 0.209724 55.845 5.21251e-08 
329 1 0.35716 0.107148 0.209713 55.845 1.62284e-08 
337 1 0.321414 -6.60841e-05 0.209512 55.845 6.60999e-08 
339 1 0.357145 0.0357192 0.209534 55.845 4.95248e-08 
415 1 0.285675 0.107083 0.125794 55.845 -8.23427e-08 
425 1 0.249996 9.96463e-06 0.125794 55.845 -4.81228e-08 
427 1 0.285664 0.0357453 0.125763 55.845 -5.36696e-08 
428 1 0.285689 0.0713718 0.167195 55.845 5.07106e-09 
429 1 0.321395 0.0713788 0.12556 55.845 -9.31813e-08 
430 1 0.321379 0.107115 0.167143 55.845 5.81921e-09 
431 1 0.357101 0.107092 0.125797 55.845 -9.83775e-08 
439 1 0.321346 0.000104311 0.125691 55.845 -6.33201e-08 
440 1 0.321343 0.0357053 0.167106 55.845 -9.97049e-09 
441 1 0.35712 0.0356417 0.125665 55.845 -7.27851e-08 
442 1 0.357082 0.0714789 0.167123 55.845 -6.32239e-09 
517 1 0.285714 0.107143 0.0416667 55.845 -4.98834e-07 
527 1 0.25 0 0.0416667 55.845 -4.72268e-07 
529 1 0.285714 0.0357143 0.0416667 55.845 -4.65416e-07 
530 1 0.285632 0.0714318 0.0837631 55.845 3.53508e-07 
531 1 0.321429 0.0714286 0.0416667 55.845 -4.75787e-07 
532 1 0.321461 0.107126 0.0839244 55.845 3.13043e-07 
533 1 0.357143 0.107143 0.0416667 55.845 -4.8319e-07 
603 1 0.357143 0.0714286 0 55.845 7.43345e-08 
541 1 0.321429 0 0.0416667 55.845 -4.7547e-07 
542 1 0.321403 0.0356193 0.0838383 55.845 3.69107e-07 
543 1 0.357143 0.0357143 0.0416667 55.845 -4.6241e-07 
544 1 0.35714 0.0714125 0.0839077 55.845 3.3071e-07 
602 1 0.321429 0.0357143 0 55.845 9.17654e-08 
596 1 0.285714 0.0714286 0 55.845 9.85055e-08 
597 1 0.321429 0.107143 0 55.845 6.88146e-08 
612 1 0.464286 0.0357143 0 55.845 9.59725e-08 
611 1 0.428571 0 0 55.845 7.45239e-08 
610 1 0.464286 0.107143 0 55.845 6.86799e-08 
609 1 0.428571 0.0714286 0 55.845 8.0139e-08 
608 1 0.392857 0.0357143 0 55.845 9.43736e-08 
341 1 0.392836 0.0714539 0.209756 55.845 4.22753e-08 
343 1 0.428514 0.107103 0.209712 55.845 4.03042e-08 
348 1 0.392729 -3.24457e-05 0.209531 55.845 5.6263e-08 
350 1 0.428552 0.0356721 0.209683 55.845 6.04148e-08 
352 1 0.464366 0.0713763 0.209631 55.845 7.49631e-08 
355 1 0.464262 -6.77421e-05 0.209703 55.845 8.02062e-08 
443 1 0.392835 0.0714913 0.125649 55.845 -1.06574e-07 
444 1 0.392797 0.107138 0.167191 55.845 -1.83708e-08 
445 1 0.428554 0.107137 0.125797 55.845 -8.48179e-08 
604 1 0.392857 0.107143 0 55.845 4.94274e-08 
450 1 0.392783 9.44164e-05 0.125651 55.845 -7.87116e-08 
451 1 0.392846 0.0357702 0.167164 55.845 -1.41777e-08 
452 1 0.42853 0.0357334 0.125736 55.845 -6.26576e-08 
453 1 0.428508 0.0714599 0.167157 55.845 -5.50951e-09 
454 1 0.464298 0.0713311 0.12569 55.845 -6.80826e-08 
455 1 0.464321 0.107037 0.167155 55.845 -4.35097e-11 
456 1 0.428485 -1.27556e-05 0.167213 55.845 -2.53472e-08 
457 1 0.464205 -1.26809e-06 0.125598 55.845 -8.42916e-08 
458 1 0.464167 0.0357464 0.167088 55.845 -1.43018e-08 
545 1 0.392857 0.0714286 0.0416667 55.845 -4.71714e-07 
546 1 0.392831 0.107174 0.0840604 55.845 3.0102e-07 
547 1 0.428571 0.107143 0.0416667 55.845 -4.89979e-07 
552 1 0.392857 0 0.0416667 55.845 -4.83139e-07 
553 1 0.392848 0.0356858 0.0837974 55.845 3.3149e-07 
554 1 0.428571 0.0357143 0.0416667 55.845 -4.88139e-07 
555 1 0.428503 0.0714364 0.0838722 55.845 3.20296e-07 
556 1 0.464286 0.0714286 0.0416667 55.845 -4.73386e-07 
557 1 0.464301 0.107116 0.0839887 55.845 3.18264e-07 
558 1 0.428531 -2.68462e-05 0.0839476 55.845 3.45675e-07 
559 1 0.464286 0 0.0416667 55.845 -4.97989e-07 
560 1 0.464253 0.0357042 0.0838734 55.845 3.48999e-07 
255 1 3.92976e-05 0.178536 0.209791 55.845 5.98714e-08 
257 1 0.0357557 0.214279 0.209758 55.845 8.47232e-08 
261 1 0.0357732 0.142888 0.209589 55.845 5.04661e-08 
263 1 0.071424 0.178577 0.209938 55.845 6.81059e-08 
265 1 0.107123 0.214279 0.209586 55.845 8.35943e-08 
273 1 0.107231 0.142883 0.209731 55.845 6.89742e-08 
357 1 -8.3886e-05 0.178583 0.125791 55.845 -2.90847e-08 
358 1 2.51062e-05 0.214276 0.167357 55.845 4.95186e-08 
359 1 0.0356858 0.214241 0.125782 55.845 -3.65827e-08 
360 1 0.0356987 0.249934 0.167165 55.845 -6.49259e-09 
362 1 8.95525e-05 0.142888 0.167191 55.845 4.55523e-08 
363 1 0.0357422 0.142878 0.125739 55.845 -1.00993e-07 
364 1 0.0357761 0.178605 0.167106 55.845 1.99802e-08 
365 1 0.0714666 0.178526 0.125852 55.845 -8.44931e-08 
366 1 0.071379 0.214288 0.167068 55.845 -3.87486e-09 
367 1 0.107106 0.214322 0.125707 55.845 -6.74607e-08 
368 1 0.107108 0.249987 0.167095 55.845 -2.01471e-08 
374 1 0.0714864 0.142858 0.167236 55.845 -3.32936e-08 
375 1 0.107099 0.142844 0.125762 55.845 -1.30648e-07 
376 1 0.107157 0.178613 0.167194 55.845 -3.30875e-08 
459 1 0 0.178571 0.0416667 55.845 -4.86339e-07 
460 1 -1.06595e-05 0.214337 0.0839095 55.845 3.45424e-07 
461 1 0.0357143 0.214286 0.0416667 55.845 -4.93883e-07 
462 1 0.035712 0.24999 0.0840357 55.845 3.28207e-07 
464 1 2.94281e-06 0.142908 0.0838853 55.845 3.23349e-07 
465 1 0.0357143 0.142857 0.0416667 55.845 -5.38978e-07 
466 1 0.0357698 0.178636 0.0839731 55.845 3.27106e-07 
467 1 0.0714286 0.178571 0.0416667 55.845 -5.29765e-07 
468 1 0.0714724 0.214233 0.0838861 55.845 3.19919e-07 
469 1 0.107143 0.214286 0.0416667 55.845 -5.18833e-07 
470 1 0.107101 0.250061 0.08389 55.845 3.11893e-07 
476 1 0.0713858 0.142876 0.0839361 55.845 2.86985e-07 
477 1 0.107143 0.142857 0.0416667 55.845 -5.51803e-07 
478 1 0.107145 0.178556 0.0839551 55.845 3.15751e-07 
561 1 0 0.214286 0 55.845 8.35561e-08 
562 1 0.0357143 0.25 0 55.845 5.57661e-08 
563 1 0 0.142857 0 55.845 8.23025e-08 
564 1 0.0357143 0.178571 0 55.845 6.975e-08 
565 1 0.0714286 0.214286 0 55.845 7.16125e-08 
566 1 0.107143 0.25 0 55.845 6.18449e-08 
569 1 0.0714286 0.142857 0 55.845 4.40424e-08 
570 1 0.107143 0.178571 0 55.845 5.1597e-08 
275 1 0.142806 0.178532 0.209749 55.845 6.00585e-08 
277 1 0.178524 0.21427 0.20954 55.845 7.25727e-08 
287 1 0.178508 0.142884 0.209733 55.845 1.76254e-08 
289 1 0.214279 0.178508 0.209524 55.845 4.74515e-08 
291 1 0.249934 0.214282 0.209756 55.845 8.12353e-08 
301 1 0.250015 0.142858 0.209574 55.845 4.90459e-08 
377 1 0.14294 0.17852 0.125745 55.845 -7.8366e-08 
378 1 0.142833 0.214265 0.167117 55.845 9.24272e-09 
379 1 0.178533 0.214303 0.125633 55.845 -4.64449e-08 
388 1 0.142884 0.142867 0.167083 55.845 -4.95942e-08 
389 1 0.178585 0.142857 0.125604 55.845 -8.98185e-08 
390 1 0.178607 0.178544 0.167289 55.845 5.31561e-09 
391 1 0.214281 0.178602 0.125755 55.845 -5.74472e-08 
392 1 0.214144 0.214287 0.167057 55.845 2.39902e-08 
393 1 0.249925 0.214296 0.125773 55.845 -5.81519e-08 
402 1 0.214247 0.142758 0.167188 55.845 -5.90417e-09 
403 1 0.250008 0.142798 0.125576 55.845 -9.55172e-08 
404 1 0.250029 0.178582 0.167025 55.845 -7.79763e-09 
479 1 0.142857 0.178571 0.0416667 55.845 -5.22937e-07 
480 1 0.142799 0.214265 0.0839483 55.845 3.3365e-07 
481 1 0.178571 0.214286 0.0416667 55.845 -4.93861e-07 
490 1 0.142858 0.142834 0.0839819 55.845 2.88568e-07 
491 1 0.178571 0.142857 0.0416667 55.845 -5.09184e-07 
492 1 0.178585 0.178571 0.0837674 55.845 3.18395e-07 
493 1 0.214286 0.178571 0.0416667 55.845 -5.07077e-07 
494 1 0.214296 0.214226 0.0839211 55.845 3.58275e-07 
495 1 0.25 0.214286 0.0416667 55.845 -5.03517e-07 
504 1 0.214286 0.142873 0.0838481 55.845 3.0145e-07 
505 1 0.25 0.142857 0.0416667 55.845 -5.19394e-07 
506 1 0.249967 0.178604 0.0839093 55.845 3.221e-07 
571 1 0.142857 0.214286 0 55.845 8.12843e-08 
576 1 0.142857 0.142857 0 55.845 3.92319e-08 
577 1 0.178571 0.178571 0 55.845 7.00916e-08 
578 1 0.214286 0.214286 0 55.845 9.52573e-08 
583 1 0.214286 0.142857 0 55.845 6.03982e-08 
584 1 0.25 0.178571 0 55.845 7.18777e-08 
303 1 0.285748 0.17851 0.209564 55.845 5.18867e-08 
305 1 0.321462 0.214256 0.20946 55.845 5.22143e-08 
315 1 0.321449 0.142898 0.209666 55.845 3.0063e-08 
317 1 0.357128 0.17853 0.209685 55.845 2.24388e-08 
405 1 0.285673 0.178477 0.125711 55.845 -9.34583e-08 
406 1 0.28561 0.21426 0.167061 55.845 -2.33095e-08 
407 1 0.321387 0.214327 0.125787 55.845 -1.12076e-07 
416 1 0.285714 0.142807 0.167228 55.845 -2.24559e-09 
417 1 0.321452 0.142874 0.125813 55.845 -1.0569e-07 
418 1 0.32149 0.178636 0.167011 55.845 -3.69564e-08 
419 1 0.35712 0.178542 0.125808 55.845 -1.17789e-07 
420 1 0.357221 0.214258 0.167052 55.845 -4.18587e-08 
432 1 0.357154 0.142853 0.167146 55.845 -3.04618e-08 
507 1 0.285714 0.178571 0.0416667 55.845 -5.32769e-07 
508 1 0.285788 0.214231 0.0840184 55.845 3.24455e-07 
509 1 0.321429 0.214286 0.0416667 55.845 -5.58664e-07 
518 1 0.285733 0.142767 0.0839225 55.845 2.97582e-07 
519 1 0.321429 0.142857 0.0416667 55.845 -5.12451e-07 
520 1 0.321404 0.178589 0.0840094 55.845 2.74513e-07 
521 1 0.357143 0.178571 0.0416667 55.845 -5.34126e-07 
522 1 0.357117 0.214221 0.0840737 55.845 2.70524e-07 
534 1 0.357141 0.142815 0.0838788 55.845 2.55632e-07 
585 1 0.285714 0.214286 0 55.845 7.37747e-08 
590 1 0.285714 0.142857 0 55.845 5.97832e-08 
591 1 0.321429 0.178571 0 55.845 3.50794e-08 
592 1 0.357143 0.214286 0 55.845 1.98002e-08 
598 1 0.357143 0.142857 0 55.845 3.76214e-08 
319 1 0.392891 0.214367 0.20967 55.845 6.12831e-08 
321 1 0.428568 0.249912 0.209571 55.845 1.15582e-07 
331 1 0.392838 0.142946 0.20967 55.845 1.45256e-08 
333 1 0.428634 0.178575 0.209638 55.845 4.10443e-08 
335 1 0.464237 0.214325 0.209476 55.845 9.68476e-08 
345 1 0.464274 0.142806 0.209527 55.845 5.81691e-08 
606 1 0.464286 0.178571 0 55.845 5.87222e-08 
421 1 0.392915 0.214386 0.125731 55.845 -9.2187e-08 
422 1 0.392874 0.250061 0.167079 55.845 -3.16753e-08 
423 1 0.428581 0.250008 0.125639 55.845 -4.37406e-08 
433 1 0.39285 0.142815 0.125726 55.845 -1.02092e-07 
434 1 0.392838 0.178584 0.167016 55.845 -4.83498e-08 
435 1 0.42862 0.178506 0.125729 55.845 -8.95934e-08 
436 1 0.428531 0.214213 0.167032 55.845 -2.11584e-08 
437 1 0.464353 0.214252 0.125639 55.845 -6.11504e-08 
605 1 0.428571 0.142857 0 55.845 4.40606e-08 
446 1 0.428538 0.142794 0.167293 55.845 -2.53689e-08 
447 1 0.464224 0.142927 0.125788 55.845 -8.05584e-08 
448 1 0.464295 0.178562 0.167147 55.845 -1.74971e-08 
523 1 0.392857 0.214286 0.0416667 55.845 -5.24249e-07 
524 1 0.392891 0.250021 0.0838736 55.845 2.7039e-07 
525 1 0.428571 0.25 0.0416667 55.845 -4.93654e-07 
535 1 0.392857 0.142857 0.0416667 55.845 -5.08702e-07 
536 1 0.392846 0.178644 0.0841175 55.845 2.69382e-07 
537 1 0.428571 0.178571 0.0416667 55.845 -5.29398e-07 
538 1 0.428606 0.214292 0.0838142 55.845 2.85045e-07 
539 1 0.464286 0.214286 0.0416667 55.845 -5.06003e-07 
548 1 0.428599 0.142807 0.083925 55.845 2.91871e-07 
549 1 0.464286 0.142857 0.0416667 55.845 -5.08018e-07 
550 1 0.464312 0.178599 0.0839096 55.845 2.86298e-07 
593 1 0.392857 0.25 0 55.845 4.12412e-08 
599 1 0.392857 0.178571 0 55.845 3.69511e-08 
600 1 0.428571 0.214286 0 55.845 5.4118e-08 
3 1 -5.27903e-05 0.107137 0.460219 55.845 -6.58898e-08 
7 1 1.1256e-05 0.0355971 0.460234 55.845 -1.16088e-08 
8 1 0.035636 0.0714691 0.460327 55.845 -4.50163e-09 
9 1 0.0714337 0.107137 0.460137 55.845 -1.1554e-08 
13 1 0.0355803 8.94305e-05 0.460157 55.845 -3.17166e-08 
14 1 0.0713065 0.0358064 0.460242 55.845 5.07414e-10 
15 1 0.107168 0.0713967 0.460353 55.845 7.36094e-09 
20 1 0.107059 -3.46093e-05 0.460162 55.845 -4.49163e-09 
55 1 8.85677e-06 0.107092 0.376583 55.845 7.89761e-08 
63 1 4.33488e-05 0.0357285 0.376577 55.845 8.09726e-08 
64 1 -3.33915e-05 0.0713832 0.418281 55.845 1.1626e-07 
65 1 0.035742 0.0714531 0.376616 55.845 8.05219e-08 
66 1 0.0357042 0.107073 0.418289 55.845 1.47441e-07 
67 1 0.0714854 0.107255 0.376754 55.845 8.88436e-08 
74 1 -2.30417e-05 -5.76701e-06 0.418253 55.845 8.94762e-08 
75 1 0.0356848 -2.35277e-05 0.376597 55.845 6.75419e-08 
76 1 0.0356986 0.0357109 0.418289 55.845 1.12722e-07 
77 1 0.0713611 0.0357878 0.37664 55.845 7.83586e-08 
78 1 0.0713505 0.0714125 0.418178 55.845 1.48988e-07 
79 1 0.107149 0.0714179 0.376708 55.845 1.19662e-07 
80 1 0.107107 0.107122 0.418327 55.845 1.2998e-07 
88 1 0.0714473 4.30947e-05 0.41837 55.845 8.32776e-08 
89 1 0.10708 -6.1177e-05 0.376508 55.845 6.72911e-08 
90 1 0.107002 0.0357467 0.418277 55.845 1.14849e-07 
157 1 3.58017e-05 0.107175 0.294199 55.845 -9.85636e-08 
165 1 3.27113e-05 0.0356629 0.294312 55.845 -9.13172e-08 
166 1 3.89906e-05 0.0714176 0.335312 55.845 -6.23882e-08 
167 1 0.0357416 0.0714421 0.294089 55.845 -8.45445e-08 
168 1 0.0357058 0.107202 0.335301 55.845 -3.1947e-08 
169 1 0.0713957 0.107141 0.294347 55.845 -6.26467e-08 
176 1 -1.97537e-05 5.83273e-06 0.335294 55.845 -3.89325e-08 
177 1 0.0357358 -2.5966e-06 0.294396 55.845 -9.61241e-08 
178 1 0.0357889 0.0358014 0.335192 55.845 -1.47477e-08 
179 1 0.0715529 0.0357106 0.294373 55.845 -8.23171e-08 
180 1 0.0713962 0.0714346 0.335392 55.845 -7.06423e-09 
181 1 0.107088 0.071498 0.294416 55.845 -7.86984e-08 
182 1 0.10714 0.107173 0.3353 55.845 -1.61695e-08 
190 1 0.0713675 -0.000105855 0.335333 55.845 -4.26753e-08 
191 1 0.107151 -5.16723e-06 0.294329 55.845 -9.23388e-08 
192 1 0.107187 0.0357461 0.335245 55.845 1.79578e-09 
268 1 -5.98918e-06 0.0714281 0.252309 55.845 -4.03478e-08 
270 1 0.0357863 0.107149 0.252234 55.845 -3.6922e-08 
278 1 -3.19832e-05 -5.68123e-05 0.252355 55.845 -3.91426e-08 
280 1 0.035718 0.0356858 0.252191 55.845 -1.73527e-08 
282 1 0.0714468 0.0713781 0.252284 55.845 -4.07163e-08 
284 1 0.107099 0.107157 0.2523 55.845 -4.75889e-08 
292 1 0.071474 -2.28526e-06 0.252281 55.845 -2.21383e-08 
294 1 0.107216 0.0357594 0.252303 55.845 -4.64211e-08 
16 1 0.142745 0.107215 0.460218 55.845 -1.65278e-08 
21 1 0.142813 0.0357107 0.460176 55.845 1.1059e-08 
22 1 0.178521 0.0713469 0.460279 55.845 -1.88171e-08 
23 1 0.21415 0.107036 0.460384 55.845 -3.05644e-08 
27 1 0.178599 -5.18527e-05 0.460128 55.845 -1.36547e-08 
28 1 0.214348 0.0357211 0.460175 55.845 -2.1196e-08 
29 1 0.25002 0.0714283 0.460234 55.845 -1.90459e-08 
81 1 0.142841 0.10712 0.376678 55.845 9.40436e-08 
91 1 0.142821 0.0357197 0.376677 55.845 1.07597e-07 
92 1 0.142753 0.0715054 0.418224 55.845 1.03564e-07 
93 1 0.178542 0.0714181 0.376758 55.845 1.08417e-07 
94 1 0.178502 0.107087 0.418431 55.845 7.26899e-08 
95 1 0.214224 0.107051 0.376768 55.845 7.43934e-08 
102 1 0.142894 9.62136e-05 0.418371 55.845 8.02414e-08 
103 1 0.178614 1.22324e-05 0.376684 55.845 6.67796e-08 
104 1 0.178543 0.0357198 0.418252 55.845 8.42041e-08 
105 1 0.214266 0.0357801 0.376727 55.845 7.75958e-08 
106 1 0.214303 0.0714295 0.418249 55.845 8.48743e-08 
107 1 0.249972 0.0714908 0.376724 55.845 7.42934e-08 
108 1 0.249917 0.107153 0.418515 55.845 1.09354e-07 
118 1 0.214303 1.0358e-05 0.418297 55.845 8.88509e-08 
120 1 0.249956 0.0357302 0.418345 55.845 7.36504e-08 
183 1 0.142809 0.107141 0.294437 55.845 -6.61479e-08 
193 1 0.142839 0.0356893 0.29432 55.845 -7.21799e-08 
194 1 0.142842 0.0713846 0.335461 55.845 -3.06405e-08 
195 1 0.178557 0.071418 0.294412 55.845 -6.06304e-08 
196 1 0.178535 0.107143 0.33527 55.845 -7.49169e-08 
197 1 0.214193 0.107097 0.294322 55.845 -7.46255e-08 
204 1 0.142893 -3.00216e-05 0.335431 55.845 -5.45163e-08 
205 1 0.178579 -1.92886e-05 0.294413 55.845 -7.44701e-08 
206 1 0.17858 0.0357533 0.335378 55.845 -2.92442e-08 
207 1 0.214255 0.0356115 0.294268 55.845 -7.53748e-08 
208 1 0.214293 0.0713374 0.335305 55.845 -6.12967e-08 
209 1 0.249993 0.0713355 0.294357 55.845 -7.52114e-08 
210 1 0.249962 0.107112 0.335405 55.845 -3.64379e-08 
220 1 0.214278 -1.01282e-05 0.335535 55.845 -5.00637e-08 
222 1 0.250033 0.0357648 0.335328 55.845 -4.67588e-08 
296 1 0.142834 0.0714122 0.252481 55.845 -4.68566e-08 
298 1 0.178526 0.107178 0.252405 55.845 -5.85792e-08 
306 1 0.142902 5.70733e-07 0.252464 55.845 -2.50759e-08 
308 1 0.178554 0.0357177 0.252435 55.845 -3.55324e-08 
310 1 0.21428 0.0713456 0.252507 55.845 -4.54594e-08 
312 1 0.249979 0.10712 0.252352 55.845 -4.21609e-08 
322 1 0.214266 -4.90559e-05 0.252389 55.845 -3.67824e-08 
324 1 0.249968 0.0357611 0.252397 55.845 -3.8379e-08 
30 1 0.285697 0.107158 0.460341 55.845 -5.70325e-10 
35 1 0.250002 -5.97348e-05 0.460289 55.845 -1.96392e-08 
36 1 0.285707 0.0356977 0.460312 55.845 -3.00034e-08 
37 1 0.321431 0.0713458 0.460137 55.845 -3.15883e-08 
38 1 0.357182 0.107086 0.460157 55.845 -9.37898e-09 
42 1 0.321504 -5.08796e-05 0.460345 55.845 -1.0346e-08 
43 1 0.357153 0.0356528 0.460172 55.845 -5.14116e-08 
109 1 0.28558 0.107176 0.37686 55.845 1.02325e-07 
119 1 0.250046 -2.53166e-05 0.376649 55.845 7.29087e-08 
121 1 0.285622 0.0356427 0.376784 55.845 6.22104e-08 
122 1 0.285697 0.0714214 0.418354 55.845 1.15532e-07 
123 1 0.321392 0.0713901 0.376665 55.845 6.9875e-08 
124 1 0.321417 0.107117 0.418343 55.845 1.52911e-07 
125 1 0.357095 0.107129 0.376672 55.845 9.91458e-08 
133 1 0.321301 -3.60327e-05 0.376733 55.845 5.67004e-08 
134 1 0.321459 0.0356168 0.41828 55.845 8.0436e-08 
135 1 0.357085 0.0356027 0.376688 55.845 8.97912e-08 
136 1 0.3571 0.0714085 0.418131 55.845 8.97125e-08 
211 1 0.285632 0.107103 0.294363 55.845 -7.23621e-08 
221 1 0.250009 7.77064e-06 0.294446 55.845 -7.90256e-08 
223 1 0.285763 0.0356909 0.294341 55.845 -9.62319e-08 
224 1 0.28568 0.0714795 0.335383 55.845 -2.57733e-08 
225 1 0.32136 0.0713911 0.294256 55.845 -8.39293e-08 
226 1 0.321363 0.10725 0.335301 55.845 -9.03483e-09 
227 1 0.357165 0.107025 0.294332 55.845 -1.04581e-07 
235 1 0.321423 -5.06317e-05 0.29422 55.845 -9.08373e-08 
236 1 0.321372 0.035742 0.335369 55.845 -2.75221e-08 
237 1 0.357168 0.0356204 0.294227 55.845 -1.03237e-07 
238 1 0.357134 0.0714553 0.33532 55.845 -3.41251e-08 
326 1 0.285631 0.0713956 0.252246 55.845 -3.7204e-08 
328 1 0.321406 0.107127 0.252422 55.845 -9.47329e-09 
338 1 0.321396 0.0356341 0.252174 55.845 -4.03382e-08 
340 1 0.357115 0.0714269 0.252325 55.845 -3.93721e-08 
44 1 0.392862 0.0713636 0.460198 55.845 -4.97574e-08 
45 1 0.428601 0.107181 0.460187 55.845 -3.36946e-08 
47 1 0.392889 6.25958e-05 0.460283 55.845 1.20944e-08 
48 1 0.428541 0.0356817 0.460085 55.845 -1.08573e-08 
49 1 0.464224 0.0714647 0.460285 55.845 -6.16767e-08 
50 1 0.464255 -7.61451e-06 0.460351 55.845 4.3418e-08 
137 1 0.392849 0.0713702 0.376672 55.845 8.71325e-08 
138 1 0.392813 0.107128 0.418346 55.845 8.73324e-08 
139 1 0.428576 0.107096 0.376623 55.845 5.84018e-08 
144 1 0.392843 -1.85397e-05 0.376759 55.845 9.76006e-08 
145 1 0.392758 0.0357418 0.418208 55.845 3.88552e-08 
146 1 0.428509 0.0356371 0.376529 55.845 6.66136e-08 
147 1 0.428538 0.0713848 0.418428 55.845 4.01019e-08 
148 1 0.464247 0.07144 0.376605 55.845 5.9702e-08 
149 1 0.464274 0.107162 0.41827 55.845 4.71785e-08 
150 1 0.428532 -1.51665e-05 0.418289 55.845 4.18203e-08 
151 1 0.464137 3.8664e-05 0.376693 55.845 1.31392e-07 
152 1 0.464229 0.0357621 0.418315 55.845 1.08243e-08 
239 1 0.3929 0.0713653 0.294347 55.845 -1.21777e-07 
240 1 0.392879 0.107086 0.335368 55.845 -5.37564e-08 
241 1 0.428563 0.107079 0.294364 55.845 -9.14273e-08 
246 1 0.392816 -0.000128276 0.294301 55.845 -8.42985e-08 
247 1 0.39287 0.0355889 0.335262 55.845 -6.72564e-08 
248 1 0.428524 0.0356867 0.294439 55.845 -8.42385e-08 
249 1 0.428562 0.0713732 0.335412 55.845 -8.43462e-08 
250 1 0.464248 0.0714319 0.294387 55.845 -8.20863e-08 
251 1 0.464332 0.10713 0.335423 55.845 -8.03563e-08 
252 1 0.428443 -5.24849e-05 0.335176 55.845 -8.12045e-08 
253 1 0.464216 1.31434e-05 0.294251 55.845 -3.91135e-08 
254 1 0.46431 0.035702 0.335433 55.845 -1.05199e-07 
342 1 0.392837 0.107125 0.252441 55.845 -3.02338e-08 
349 1 0.392881 0.0356444 0.25241 55.845 -5.19154e-08 
351 1 0.428635 0.0713725 0.252414 55.845 -5.64034e-08 
353 1 0.464182 0.107056 0.252356 55.845 -4.99299e-08 
354 1 0.428476 3.38114e-05 0.252207 55.845 -7.56181e-08 
356 1 0.464213 0.0357454 0.252186 55.845 -6.47909e-08 
1 1 -6.94776e-05 0.178565 0.46048 55.845 -9.7913e-08 
2 1 0.0357615 0.21432 0.460328 55.845 -1.81178e-08 
4 1 0.035751 0.142758 0.460381 55.845 -6.97882e-08 
5 1 0.0714569 0.178611 0.460402 55.845 -1.41061e-08 
6 1 0.107079 0.214314 0.460386 55.845 -7.13949e-09 
10 1 0.107163 0.142833 0.460343 55.845 -2.9232e-08 
51 1 -4.89444e-05 0.178508 0.376865 55.845 3.47511e-08 
52 1 -4.22248e-06 0.214306 0.418457 55.845 5.11919e-08 
53 1 0.0356732 0.21426 0.376702 55.845 6.5891e-08 
54 1 0.0356212 0.249973 0.418427 55.845 6.89724e-08 
56 1 1.04977e-05 0.142814 0.418313 55.845 8.00858e-08 
57 1 0.0357742 0.142949 0.376732 55.845 6.64603e-08 
58 1 0.0357397 0.17848 0.418458 55.845 8.58908e-08 
59 1 0.0714035 0.178554 0.376738 55.845 5.27755e-08 
60 1 0.0713286 0.214209 0.41839 55.845 8.56209e-08 
61 1 0.107071 0.21427 0.376883 55.845 7.79119e-08 
62 1 0.107078 0.250036 0.418276 55.845 7.29457e-08 
68 1 0.071461 0.14295 0.418354 55.845 1.12461e-07 
69 1 0.107102 0.142838 0.37672 55.845 8.98134e-08 
70 1 0.107161 0.178609 0.41853 55.845 1.01878e-07 
153 1 2.72772e-05 0.178594 0.294359 55.845 -5.68939e-08 
154 1 -0.000152891 0.214291 0.335425 55.845 -4.90454e-08 
155 1 0.03563 0.214305 0.294539 55.845 -8.65397e-08 
156 1 0.0356551 0.25002 0.335236 55.845 -4.9048e-08 
158 1 -5.68816e-06 0.142803 0.335275 55.845 -6.4669e-08 
159 1 0.0357631 0.142944 0.294267 55.845 -6.73269e-08 
160 1 0.0357088 0.17855 0.335401 55.845 -4.60631e-08 
161 1 0.071447 0.178661 0.294602 55.845 -8.82528e-08 
162 1 0.0713604 0.214315 0.335367 55.845 -2.8659e-08 
163 1 0.107152 0.21429 0.294362 55.845 -4.74511e-08 
164 1 0.107085 0.249974 0.33536 55.845 -3.93464e-08 
170 1 0.0713317 0.142821 0.335488 55.845 -1.54188e-08 
171 1 0.107074 0.142988 0.294577 55.845 -7.61148e-08 
172 1 0.10716 0.178591 0.335553 55.845 -4.83364e-08 
256 1 2.83714e-05 0.214249 0.252402 55.845 1.91288e-08 
258 1 0.0356469 0.249979 0.25233 55.845 -1.0983e-08 
260 1 -1.04202e-05 0.142752 0.252287 55.845 -3.15588e-09 
262 1 0.0357548 0.17868 0.252488 55.845 7.68631e-09 
264 1 0.0713601 0.214311 0.252321 55.845 -1.55249e-08 
266 1 0.107141 0.250011 0.25225 55.845 -2.33475e-08 
272 1 0.0714029 0.142905 0.252493 55.845 -3.49696e-08 
274 1 0.107069 0.178584 0.252509 55.845 -5.19016e-08 
11 1 0.142821 0.178572 0.460262 55.845 -4.67302e-08 
12 1 0.17849 0.214294 0.460105 55.845 -5.52921e-08 
17 1 0.178562 0.142866 0.460157 55.845 -4.72176e-08 
18 1 0.214287 0.178468 0.460139 55.845 -5.08238e-08 
19 1 0.250075 0.214264 0.460108 55.845 -2.49809e-08 
24 1 0.250039 0.142815 0.460098 55.845 3.75871e-11 
71 1 0.142874 0.178533 0.37678 55.845 5.61108e-08 
72 1 0.142774 0.214274 0.418131 55.845 4.40544e-08 
73 1 0.178621 0.214269 0.376571 55.845 5.8158e-08 
82 1 0.142813 0.14286 0.418188 55.845 8.40337e-08 
83 1 0.178546 0.142797 0.376671 55.845 7.46969e-08 
84 1 0.178607 0.17856 0.418175 55.845 2.30015e-08 
85 1 0.214279 0.178466 0.376607 55.845 3.12713e-08 
86 1 0.214245 0.214151 0.418393 55.845 1.21279e-08 
87 1 0.249966 0.214175 0.376584 55.845 2.40288e-08 
96 1 0.214249 0.142731 0.418348 55.845 5.11636e-08 
97 1 0.250033 0.142824 0.376706 55.845 7.40734e-08 
98 1 0.249979 0.178504 0.41831 55.845 5.92229e-08 
173 1 0.142818 0.178608 0.294276 55.845 -8.87378e-08 
174 1 0.142823 0.214305 0.335361 55.845 -7.96361e-08 
175 1 0.178584 0.214352 0.294387 55.845 -5.03841e-08 
184 1 0.142817 0.142883 0.335354 55.845 -7.99219e-08 
185 1 0.178551 0.142889 0.294234 55.845 -9.37298e-08 
186 1 0.1786 0.178579 0.335301 55.845 -1.1377e-07 
187 1 0.214276 0.178502 0.294269 55.845 -7.85455e-08 
188 1 0.214359 0.214238 0.335247 55.845 -1.11182e-07 
189 1 0.249996 0.214194 0.294059 55.845 -7.41878e-08 
198 1 0.214288 0.142735 0.335327 55.845 -9.5344e-08 
199 1 0.249964 0.142878 0.294361 55.845 -6.35326e-08 
200 1 0.250036 0.178519 0.335344 55.845 -8.38632e-08 
276 1 0.142813 0.214293 0.252332 55.845 -3.09813e-08 
286 1 0.142807 0.142835 0.25242 55.845 -6.93274e-08 
288 1 0.178597 0.178606 0.252158 55.845 -5.86294e-08 
290 1 0.214223 0.214242 0.252154 55.845 -5.39142e-08 
300 1 0.214253 0.142852 0.252211 55.845 -4.86224e-08 
302 1 0.249985 0.178546 0.25224 55.845 -4.65778e-08 
25 1 0.285643 0.178534 0.460319 55.845 1.33207e-08 
26 1 0.321473 0.214275 0.460148 55.845 -2.61116e-09 
31 1 0.321401 0.142908 0.460233 55.845 2.42381e-08 
32 1 0.357159 0.178574 0.460237 55.845 6.89541e-09 
99 1 0.285702 0.178573 0.3767 55.845 8.49383e-08 
100 1 0.285652 0.214325 0.41844 55.845 6.75141e-08 
101 1 0.321389 0.214302 0.376688 55.845 6.65882e-08 
110 1 0.285723 0.142855 0.418359 55.845 1.34206e-07 
111 1 0.321368 0.142932 0.376754 55.845 1.36909e-07 
112 1 0.321399 0.178613 0.418445 55.845 1.29694e-07 
113 1 0.357096 0.178516 0.376924 55.845 1.25626e-07 
114 1 0.357149 0.214336 0.418264 55.845 1.02103e-07 
126 1 0.357083 0.142812 0.418351 55.845 1.52809e-07 
201 1 0.285676 0.178591 0.294211 55.845 -5.51914e-08 
202 1 0.285683 0.214197 0.335361 55.845 -6.97253e-08 
203 1 0.321419 0.214345 0.294188 55.845 -6.569e-08 
212 1 0.285772 0.142854 0.335389 55.845 -2.21615e-08 
213 1 0.321446 0.142875 0.294319 55.845 -6.70904e-08 
214 1 0.321359 0.178591 0.335364 55.845 -2.47463e-08 