ITEM: TIMESTEP
6400
ITEM: NUMBER OF ATOMS
5880
ITEM: BOX BOUNDS pp pp ff
-28.0153 28.0153
-28.0153 28.0153
0 34.092
ITEM: ATOMS id type xs ys zs mass q 
259 1 -3.63304e-06 0.107178 0.208112 55.845 1.15484e-06 
267 1 4.04404e-05 0.0356662 0.208089 55.845 8.12245e-07 
269 1 0.0356298 0.0714414 0.208078 55.845 8.84666e-07 
271 1 0.0714115 0.10712 0.208148 55.845 8.28105e-07 
279 1 0.0356167 2.16413e-05 0.208161 55.845 6.37429e-07 
281 1 0.0714077 0.0356734 0.208161 55.845 6.06895e-07 
283 1 0.107153 0.0713435 0.20808 55.845 4.494e-07 
293 1 0.107082 -9.35412e-05 0.2081 55.845 8.57289e-07 
361 1 8.64613e-06 0.107083 0.12546 55.845 -4.62935e-07 
369 1 -4.60022e-05 0.0357797 0.125467 55.845 -2.79184e-07 
370 1 2.80141e-05 0.0714796 0.16662 55.845 -3.63239e-07 
371 1 0.0356715 0.0714666 0.125489 55.845 -3.54692e-07 
372 1 0.035779 0.107117 0.166564 55.845 -4.03675e-07 
373 1 0.0715155 0.107139 0.125386 55.845 -3.56222e-07 
380 1 3.21978e-05 -3.71467e-05 0.166787 55.845 -2.29075e-07 
381 1 0.0357077 -5.67781e-05 0.125397 55.845 -2.70504e-07 
382 1 0.0357275 0.0356295 0.166641 55.845 -2.25885e-07 
383 1 0.0714062 0.0357251 0.125508 55.845 -3.50268e-07 
384 1 0.0714372 0.0714326 0.166674 55.845 -2.22441e-07 
385 1 0.107125 0.0714849 0.12544 55.845 -3.29358e-07 
386 1 0.107185 0.107231 0.166808 55.845 -1.72108e-07 
394 1 0.0713781 -2.74806e-05 0.166684 55.845 -2.66724e-07 
395 1 0.10712 2.73133e-05 0.125413 55.845 -3.59554e-07 
396 1 0.107107 0.0357239 0.166584 55.845 -5.50044e-08 
463 1 0 0.107143 0.0416667 55.845 -8.36746e-08 
471 1 0 0.0357143 0.0416667 55.845 1.59339e-08 
472 1 -1.69464e-05 0.0713865 0.0832966 55.845 1.54453e-07 
473 1 0.0357143 0.0714286 0.0416667 55.845 -5.53157e-08 
474 1 0.0357425 0.107135 0.0833076 55.845 5.36856e-07 
475 1 0.0714286 0.107143 0.0416667 55.845 -6.32628e-08 
482 1 -2.03008e-05 -3.56699e-05 0.0834219 55.845 4.39934e-07 
483 1 0.0357143 0 0.0416667 55.845 9.74526e-08 
484 1 0.0356919 0.0356839 0.0832908 55.845 2.2912e-07 
485 1 0.0714286 0.0357143 0.0416667 55.845 4.80891e-08 
486 1 0.071482 0.0714184 0.0832619 55.845 5.90587e-07 
487 1 0.107143 0.0714286 0.0416667 55.845 -2.65613e-08 
488 1 0.107215 0.107165 0.083252 55.845 7.17861e-07 
496 1 0.0715136 -2.54466e-05 0.0834611 55.845 2.47809e-07 
497 1 0.107143 0 0.0416667 55.845 -1.54882e-07 
498 1 0.107172 0.0356944 0.0833865 55.845 4.80037e-07 
567 1 0 0.0714286 0 55.845 -1.99304e-07 
568 1 0.0357143 0.107143 0 55.845 -1.19645e-07 
572 1 0 0 0 55.845 1.18899e-07 
573 1 0.0357143 0.0357143 0 55.845 -1.98907e-07 
574 1 0.0714286 0.0714286 0 55.845 6.20019e-08 
575 1 0.107143 0.107143 0 55.845 1.69862e-07 
579 1 0.0714286 0 0 55.845 -1.2844e-07 
580 1 0.107143 0.0357143 0 55.845 1.42189e-07 
285 1 0.142847 0.107157 0.208069 55.845 2.95004e-07 
295 1 0.142751 0.0356811 0.208065 55.845 3.99911e-07 
297 1 0.178605 0.0714704 0.208106 55.845 3.07724e-07 
299 1 0.214274 0.10713 0.208313 55.845 4.1597e-07 
307 1 0.178663 7.57313e-05 0.208089 55.845 6.6917e-07 
309 1 0.214357 0.035695 0.20797 55.845 5.3435e-07 
311 1 0.250063 0.0714739 0.208103 55.845 6.01655e-07 
387 1 0.142881 0.107096 0.125495 55.845 -3.62093e-07 
397 1 0.142822 0.0357958 0.125591 55.845 -3.35397e-07 
398 1 0.142886 0.0714516 0.166882 55.845 -1.50695e-08 
399 1 0.178705 0.0713974 0.125367 55.845 -4.29574e-07 
400 1 0.178602 0.10712 0.166826 55.845 5.50107e-08 
401 1 0.214296 0.107153 0.125514 55.845 -5.47168e-07 
408 1 0.14285 1.711e-05 0.166682 55.845 -3.06113e-07 
409 1 0.178573 1.38039e-05 0.125499 55.845 -3.18248e-07 
410 1 0.178587 0.0357085 0.166695 55.845 -1.22385e-07 
411 1 0.214329 0.035747 0.12537 55.845 -4.42704e-07 
412 1 0.214336 0.0714401 0.166782 55.845 -8.81265e-08 
413 1 0.24999 0.0713442 0.125402 55.845 -6.82256e-07 
414 1 0.250019 0.107237 0.166604 55.845 -1.77932e-07 
424 1 0.21436 -4.55666e-05 0.166771 55.845 -3.53383e-07 
426 1 0.250016 0.0357386 0.16687 55.845 -2.10576e-07 
489 1 0.142857 0.107143 0.0416667 55.845 -2.58633e-07 
499 1 0.142857 0.0357143 0.0416667 55.845 -5.72514e-08 
500 1 0.142826 0.0714641 0.0833383 55.845 5.74166e-07 
501 1 0.178571 0.0714286 0.0416667 55.845 -1.0833e-07 
502 1 0.178572 0.107114 0.0833027 55.845 3.36118e-07 
503 1 0.214286 0.107143 0.0416667 55.845 -8.02613e-08 
510 1 0.14284 6.25194e-05 0.0833844 55.845 4.00492e-07 
511 1 0.178571 0 0.0416667 55.845 -2.14154e-08 
512 1 0.178573 0.0357091 0.0834191 55.845 4.61769e-07 
513 1 0.214286 0.0357143 0.0416667 55.845 -1.58214e-07 
514 1 0.214281 0.0714545 0.0832973 55.845 3.53935e-07 
515 1 0.25 0.0714286 0.0416667 55.845 -1.55829e-07 
516 1 0.249997 0.107177 0.083479 55.845 4.56384e-07 
526 1 0.214292 1.0138e-05 0.0833065 55.845 5.17421e-07 
528 1 0.249998 0.0357321 0.0833054 55.845 4.26429e-07 
581 1 0.142857 0.0714286 0 55.845 1.45489e-07 
582 1 0.178571 0.107143 0 55.845 -1.26423e-07 
586 1 0.142857 0 0 55.845 -8.53963e-08 
587 1 0.178571 0.0357143 0 55.845 1.40045e-09 
588 1 0.214286 0.0714286 0 55.845 -1.35393e-07 
589 1 0.25 0.107143 0 55.845 -1.0303e-07 
594 1 0.214286 0 0 55.845 4.79325e-08 
595 1 0.25 0.0357143 0 55.845 -4.89076e-08 
313 1 0.285858 0.107159 0.208148 55.845 6.30927e-07 
323 1 0.249997 0.000114898 0.208378 55.845 6.74911e-07 
325 1 0.285664 0.0357459 0.208197 55.845 7.45746e-07 
327 1 0.321413 0.0714607 0.208285 55.845 8.02984e-07 
329 1 0.357165 0.107188 0.208221 55.845 6.93311e-07 
337 1 0.321439 6.16883e-05 0.208122 55.845 9.55847e-07 
339 1 0.357136 0.0357678 0.208091 55.845 8.18232e-07 
415 1 0.285681 0.107157 0.125546 55.845 -5.83039e-07 
425 1 0.250035 4.96292e-05 0.125423 55.845 -3.73971e-07 
427 1 0.285651 0.0357898 0.125442 55.845 -6.13468e-07 
428 1 0.28575 0.0714355 0.166711 55.845 -2.20549e-07 
429 1 0.321477 0.0714199 0.125452 55.845 -7.01326e-07 
430 1 0.321495 0.107183 0.166756 55.845 -2.59408e-07 
431 1 0.357097 0.107214 0.125412 55.845 -6.0399e-07 
439 1 0.321418 2.26179e-06 0.12549 55.845 -4.6651e-07 
440 1 0.321374 0.0357555 0.166776 55.845 -2.6553e-07 
441 1 0.357075 0.0356869 0.125421 55.845 -5.33767e-07 
442 1 0.357145 0.0714333 0.166769 55.845 -1.96746e-07 
517 1 0.285714 0.107143 0.0416667 55.845 -1.62676e-08 
527 1 0.25 0 0.0416667 55.845 -1.58027e-07 
529 1 0.285714 0.0357143 0.0416667 55.845 -2.3712e-07 
530 1 0.285748 0.0713958 0.083303 55.845 5.18732e-07 
531 1 0.321429 0.0714286 0.0416667 55.845 -4.2267e-08 
532 1 0.321382 0.107164 0.0833734 55.845 5.36858e-07 
533 1 0.357143 0.107143 0.0416667 55.845 1.35135e-08 
603 1 0.357143 0.0714286 0 55.845 -9.77223e-08 
541 1 0.321429 0 0.0416667 55.845 -1.128e-07 
542 1 0.321422 0.0357839 0.083474 55.845 5.36704e-07 
543 1 0.357143 0.0357143 0.0416667 55.845 -2.12921e-08 
544 1 0.357168 0.0715023 0.0834113 55.845 5.7673e-07 
602 1 0.321429 0.0357143 0 55.845 -1.22504e-07 
596 1 0.285714 0.0714286 0 55.845 -2.55557e-07 
597 1 0.321429 0.107143 0 55.845 -1.44431e-07 
612 1 0.464286 0.0357143 0 55.845 -1.33986e-07 
611 1 0.428571 0 0 55.845 -1.2951e-07 
610 1 0.464286 0.107143 0 55.845 -1.06473e-08 
609 1 0.428571 0.0714286 0 55.845 4.73792e-08 
608 1 0.392857 0.0357143 0 55.845 2.02302e-08 
341 1 0.392788 0.0714193 0.208203 55.845 7.54143e-07 
343 1 0.428558 0.107135 0.208277 55.845 7.58652e-07 
348 1 0.392927 5.22111e-05 0.208099 55.845 9.96134e-07 
350 1 0.42853 0.0357242 0.208122 55.845 8.09158e-07 
352 1 0.464301 0.071429 0.208247 55.845 9.42283e-07 
355 1 0.464191 -6.23067e-05 0.208192 55.845 1.17109e-06 
443 1 0.392836 0.0715183 0.125534 55.845 -5.14272e-07 
444 1 0.392886 0.107228 0.166885 55.845 -1.64904e-07 
445 1 0.428608 0.107102 0.125549 55.845 -4.39256e-07 
604 1 0.392857 0.107143 0 55.845 -9.65952e-08 
450 1 0.392796 1.15221e-05 0.125375 55.845 -3.64236e-07 
451 1 0.392877 0.035781 0.16675 55.845 -3.98032e-07 
452 1 0.428576 0.0357762 0.125376 55.845 -1.83913e-07 
453 1 0.428452 0.0713684 0.166827 55.845 -3.78526e-07 
454 1 0.464302 0.0714433 0.125533 55.845 -2.79946e-07 
455 1 0.464316 0.107138 0.166761 55.845 -4.75154e-07 
456 1 0.428577 -1.46067e-05 0.166697 55.845 -5.80643e-07 
457 1 0.464271 -3.51169e-05 0.125465 55.845 9.09782e-09 
458 1 0.464337 0.0356745 0.166832 55.845 -6.6225e-07 
545 1 0.392857 0.0714286 0.0416667 55.845 7.1544e-08 
546 1 0.392793 0.107172 0.0833557 55.845 4.85212e-07 
547 1 0.428571 0.107143 0.0416667 55.845 6.53195e-08 
552 1 0.392857 0 0.0416667 55.845 -1.55007e-07 
553 1 0.392827 0.0357774 0.0833506 55.845 5.78395e-07 
554 1 0.428571 0.0357143 0.0416667 55.845 1.91498e-08 
555 1 0.428592 0.0714747 0.0835487 55.845 5.64026e-07 
556 1 0.464286 0.0714286 0.0416667 55.845 -3.50471e-08 
557 1 0.464292 0.107073 0.0833874 55.845 4.07611e-07 
558 1 0.428495 -4.07903e-05 0.0833769 55.845 2.15498e-07 
559 1 0.464286 0 0.0416667 55.845 4.8314e-09 
560 1 0.464343 0.0356891 0.0833755 55.845 2.00243e-07 
255 1 1.15254e-05 0.178651 0.20824 55.845 1.00945e-06 
257 1 0.0357967 0.21431 0.208296 55.845 8.15446e-07 
261 1 0.0356713 0.142823 0.208067 55.845 9.96784e-07 
263 1 0.071512 0.178607 0.208103 55.845 9.75138e-07 
265 1 0.107129 0.214384 0.208054 55.845 7.58922e-07 
273 1 0.10717 0.142965 0.20832 55.845 6.95517e-07 
357 1 -4.9753e-05 0.178643 0.12558 55.845 -4.40368e-07 
358 1 2.22066e-05 0.214289 0.16684 55.845 -2.11993e-07 
359 1 0.0358315 0.214337 0.125544 55.845 -4.88827e-07 
360 1 0.0357557 0.249984 0.166781 55.845 -1.02722e-07 
362 1 -4.35635e-05 0.142868 0.166937 55.845 -5.7082e-07 
363 1 0.0357147 0.142947 0.12556 55.845 -3.41518e-07 
364 1 0.0357492 0.178515 0.166696 55.845 -4.47067e-07 
365 1 0.0714857 0.178567 0.125486 55.845 -5.13875e-07 
366 1 0.0715039 0.214253 0.166996 55.845 -2.02958e-07 
367 1 0.107198 0.214366 0.12533 55.845 -3.1689e-07 
368 1 0.107138 0.250032 0.166817 55.845 -3.23176e-07 
374 1 0.0714 0.142739 0.166733 55.845 -3.59015e-07 
375 1 0.107229 0.142896 0.125534 55.845 -4.85177e-07 
376 1 0.10716 0.178633 0.166708 55.845 -3.28422e-07 
459 1 0 0.178571 0.0416667 55.845 3.11808e-07 
460 1 1.20674e-05 0.214317 0.0834127 55.845 5.86818e-07 
461 1 0.0357143 0.214286 0.0416667 55.845 -1.9406e-07 
462 1 0.0356768 0.250027 0.0833165 55.845 5.13033e-07 
464 1 -1.39376e-05 0.142912 0.0835547 55.845 5.74255e-07 
465 1 0.0357143 0.142857 0.0416667 55.845 1.1109e-07 
466 1 0.0357461 0.178572 0.0832727 55.845 7.18454e-07 
467 1 0.0714286 0.178571 0.0416667 55.845 -3.06847e-07 
468 1 0.0714273 0.214339 0.0834375 55.845 4.68445e-07 
469 1 0.107143 0.214286 0.0416667 55.845 -3.63091e-07 
470 1 0.107112 0.250099 0.0832809 55.845 5.75556e-07 
476 1 0.0714133 0.14284 0.0833408 55.845 6.53363e-07 
477 1 0.107143 0.142857 0.0416667 55.845 -4.01773e-07 
478 1 0.107078 0.178567 0.0832806 55.845 5.22815e-07 
561 1 0 0.214286 0 55.845 -1.32921e-07 
562 1 0.0357143 0.25 0 55.845 -1.68752e-07 
563 1 0 0.142857 0 55.845 -5.73623e-08 
564 1 0.0357143 0.178571 0 55.845 3.79829e-08 
565 1 0.0714286 0.214286 0 55.845 -1.49788e-08 
566 1 0.107143 0.25 0 55.845 2.29519e-07 
569 1 0.0714286 0.142857 0 55.845 5.33454e-08 
570 1 0.107143 0.178571 0 55.845 -3.24112e-08 
275 1 0.142919 0.178632 0.208122 55.845 7.43219e-07 
277 1 0.178582 0.214321 0.20825 55.845 7.72008e-07 
287 1 0.17857 0.142965 0.208189 55.845 5.15857e-07 
289 1 0.214252 0.178621 0.208206 55.845 7.6428e-07 
291 1 0.249979 0.214367 0.208327 55.845 1.06309e-06 
301 1 0.249935 0.142847 0.208134 55.845 6.72226e-07 
377 1 0.142805 0.178555 0.125414 55.845 -4.28246e-07 
378 1 0.142883 0.21429 0.166826 55.845 -2.90792e-07 
379 1 0.17854 0.214234 0.125273 55.845 -3.58115e-07 
388 1 0.14285 0.142883 0.166663 55.845 -1.02096e-07 
389 1 0.178475 0.142833 0.125511 55.845 -5.47316e-07 
390 1 0.178557 0.178667 0.166716 55.845 -2.46727e-07 
391 1 0.214329 0.178506 0.125544 55.845 -4.06639e-07 
392 1 0.214267 0.214273 0.166942 55.845 -5.64415e-07 
393 1 0.250081 0.2142 0.125527 55.845 -3.67933e-07 
402 1 0.214239 0.142854 0.166675 55.845 -1.48193e-07 
403 1 0.249939 0.142953 0.125319 55.845 -4.70438e-07 
404 1 0.25004 0.178634 0.166749 55.845 -4.45361e-07 
479 1 0.142857 0.178571 0.0416667 55.845 -4.46538e-07 
480 1 0.142939 0.214273 0.0832538 55.845 5.05757e-07 
481 1 0.178571 0.214286 0.0416667 55.845 -1.71185e-07 
490 1 0.142888 0.142827 0.0831685 55.845 4.08838e-07 
491 1 0.178571 0.142857 0.0416667 55.845 -2.65147e-07 
492 1 0.178469 0.178464 0.0834306 55.845 5.23632e-07 
493 1 0.214286 0.178571 0.0416667 55.845 -2.13146e-08 
494 1 0.214343 0.214232 0.0833976 55.845 5.04025e-07 
495 1 0.25 0.214286 0.0416667 55.845 -2.06893e-07 
504 1 0.214179 0.142796 0.0832953 55.845 4.79159e-07 
505 1 0.25 0.142857 0.0416667 55.845 3.91456e-08 
506 1 0.250007 0.17857 0.0833099 55.845 5.39233e-07 
571 1 0.142857 0.214286 0 55.845 1.10284e-07 
576 1 0.142857 0.142857 0 55.845 -2.13855e-08 
577 1 0.178571 0.178571 0 55.845 -8.3527e-08 
578 1 0.214286 0.214286 0 55.845 1.805e-08 
583 1 0.214286 0.142857 0 55.845 6.83144e-09 
584 1 0.25 0.178571 0 55.845 -8.19366e-09 
303 1 0.285618 0.178627 0.208165 55.845 7.76429e-07 
305 1 0.321408 0.214369 0.208079 55.845 8.09316e-07 
315 1 0.321413 0.142926 0.208129 55.845 7.2953e-07 
317 1 0.357209 0.178608 0.208093 55.845 7.54931e-07 
405 1 0.285769 0.178533 0.12554 55.845 -3.93822e-07 
406 1 0.285815 0.214304 0.166782 55.845 -4.99293e-07 
407 1 0.321519 0.214283 0.125478 55.845 -2.30335e-07 
416 1 0.285697 0.142853 0.166861 55.845 -2.58362e-07 
417 1 0.321382 0.142943 0.125442 55.845 -5.59076e-07 
418 1 0.321492 0.17863 0.166901 55.845 -3.46986e-07 
419 1 0.357101 0.178596 0.125494 55.845 -5.07744e-07 
420 1 0.357128 0.214297 0.166814 55.845 -2.85184e-07 
432 1 0.357159 0.142824 0.16699 55.845 -2.22076e-07 
507 1 0.285714 0.178571 0.0416667 55.845 -9.05115e-08 
508 1 0.285785 0.214157 0.0833117 55.845 4.08689e-07 
509 1 0.321429 0.214286 0.0416667 55.845 -2.01804e-07 
518 1 0.285719 0.142918 0.0833443 55.845 7.39566e-07 
519 1 0.321429 0.142857 0.0416667 55.845 9.06186e-09 
520 1 0.321427 0.178625 0.0833418 55.845 5.28578e-07 
521 1 0.357143 0.178571 0.0416667 55.845 -1.36913e-07 
522 1 0.357121 0.21431 0.0834376 55.845 4.25545e-07 
534 1 0.357114 0.14285 0.0834989 55.845 3.27662e-07 
585 1 0.285714 0.214286 0 55.845 -2.00734e-08 
590 1 0.285714 0.142857 0 55.845 5.97926e-08 
591 1 0.321429 0.178571 0 55.845 -5.78395e-08 
592 1 0.357143 0.214286 0 55.845 1.24829e-07 
598 1 0.357143 0.142857 0 55.845 -1.98146e-07 
319 1 0.392926 0.214298 0.208149 55.845 4.94488e-07 
321 1 0.428612 0.249983 0.208171 55.845 5.79239e-07 
331 1 0.392913 0.14293 0.208292 55.845 8.04362e-07 
333 1 0.428596 0.178618 0.20804 55.845 5.74518e-07 
335 1 0.464372 0.214284 0.208134 55.845 7.21853e-07 
345 1 0.464273 0.142877 0.208076 55.845 7.74507e-07 
606 1 0.464286 0.178571 0 55.845 9.19396e-08 
421 1 0.392852 0.214367 0.125523 55.845 -2.34701e-07 
422 1 0.392966 0.250088 0.166848 55.845 -2.62538e-07 
423 1 0.428561 0.250057 0.1253 55.845 -1.45923e-07 
433 1 0.392801 0.14285 0.125254 55.845 -5.66173e-07 
434 1 0.392886 0.178602 0.166668 55.845 -2.01808e-07 
435 1 0.428597 0.17855 0.125395 55.845 -4.40478e-07 
436 1 0.428614 0.214312 0.166602 55.845 -3.47246e-07 
437 1 0.464359 0.214285 0.12537 55.845 -2.53559e-07 
605 1 0.428571 0.142857 0 55.845 -1.51318e-07 
446 1 0.428564 0.142842 0.166723 55.845 -3.09679e-07 
447 1 0.464216 0.142871 0.125395 55.845 -3.28481e-07 
448 1 0.464355 0.178551 0.166674 55.845 -4.16451e-07 
523 1 0.392857 0.214286 0.0416667 55.845 -1.29544e-07 
524 1 0.392863 0.249921 0.083243 55.845 4.20785e-07 
525 1 0.428571 0.25 0.0416667 55.845 -4.09276e-08 
535 1 0.392857 0.142857 0.0416667 55.845 -1.72209e-07 
536 1 0.392737 0.178666 0.0833265 55.845 3.64846e-07 
537 1 0.428571 0.178571 0.0416667 55.845 -3.06681e-07 
538 1 0.428557 0.214233 0.0833245 55.845 3.63184e-07 
539 1 0.464286 0.214286 0.0416667 55.845 -2.43528e-07 
548 1 0.428585 0.14286 0.0832805 55.845 4.66644e-07 
549 1 0.464286 0.142857 0.0416667 55.845 -6.7761e-08 
550 1 0.464272 0.178644 0.0832642 55.845 5.46424e-07 
593 1 0.392857 0.25 0 55.845 1.9439e-07 
599 1 0.392857 0.178571 0 55.845 -1.2377e-07 
600 1 0.428571 0.214286 0 55.845 -3.96442e-08 
3 1 2.27687e-05 0.107188 0.459575 55.845 -6.12223e-07 
7 1 -2.23228e-06 0.0357377 0.459747 55.845 -4.80323e-07 
8 1 0.0356625 0.0714508 0.459449 55.845 -4.13955e-07 
9 1 0.0714149 0.107134 0.459728 55.845 -2.33783e-07 
13 1 0.0357634 1.08193e-05 0.459564 55.845 -3.82507e-07 
14 1 0.0714129 0.0357407 0.45949 55.845 -3.61257e-07 
15 1 0.107131 0.0713925 0.459504 55.845 -1.70202e-07 
20 1 0.107161 5.05888e-05 0.459467 55.845 -4.18122e-07 
55 1 4.67525e-05 0.107167 0.374705 55.845 9.86259e-07 
63 1 -4.53802e-06 0.0356776 0.374779 55.845 7.58424e-07 
64 1 6.92504e-05 0.0715009 0.416807 55.845 -1.60018e-07 
65 1 0.0357076 0.0714496 0.374631 55.845 7.92111e-07 
66 1 0.0356782 0.107175 0.416764 55.845 -2.0155e-07 
67 1 0.0715058 0.107075 0.374907 55.845 6.26425e-07 
74 1 -3.40778e-05 -3.52193e-05 0.416915 55.845 -1.58248e-07 
75 1 0.0356364 8.54556e-05 0.374814 55.845 6.17968e-07 
76 1 0.0356606 0.0357525 0.416781 55.845 -2.81861e-07 
77 1 0.0715157 0.0358303 0.374792 55.845 6.75025e-07 
78 1 0.0714545 0.071485 0.416872 55.845 -1.84113e-07 
79 1 0.107152 0.0714396 0.374762 55.845 5.10933e-07 
80 1 0.107138 0.107129 0.416775 55.845 -1.83632e-07 
88 1 0.0714533 8.2644e-05 0.416776 55.845 -1.33893e-07 
89 1 0.107106 -1.00309e-05 0.374716 55.845 7.11193e-07 
90 1 0.107197 0.0357577 0.416787 55.845 -1.82772e-07 
157 1 -1.08551e-05 0.107123 0.292733 55.845 -2.35174e-07 
165 1 5.19915e-05 0.0356348 0.292577 55.845 -2.96423e-07 
166 1 -2.59239e-05 0.0714395 0.33394 55.845 -2.37654e-08 
167 1 0.0357689 0.0714339 0.292749 55.845 -1.68332e-07 
168 1 0.0357818 0.107123 0.334137 55.845 -1.74981e-07 
169 1 0.0714805 0.107175 0.292586 55.845 -3.88987e-07 
176 1 -0.000111391 1.10324e-05 0.334188 55.845 -3.05889e-07 
177 1 0.03573 5.33792e-05 0.292642 55.845 -3.12167e-07 
178 1 0.0356968 0.0357693 0.333973 55.845 -2.15356e-08 
179 1 0.0714631 0.0357164 0.292828 55.845 -2.02944e-07 
180 1 0.0714968 0.0714765 0.333924 55.845 -2.93147e-07 
181 1 0.107142 0.0714296 0.292542 55.845 -4.92566e-07 
182 1 0.107098 0.107195 0.333981 55.845 -2.60575e-07 
190 1 0.0714024 5.04554e-05 0.333991 55.845 -1.38632e-07 
191 1 0.107157 9.76515e-05 0.292778 55.845 -2.51523e-07 
192 1 0.107107 0.0357534 0.333922 55.845 -1.60787e-07 
268 1 -4.11102e-05 0.0714209 0.249983 55.845 -2.70749e-07 
270 1 0.0357349 0.107141 0.249905 55.845 -4.43838e-07 
278 1 9.22517e-06 -1.82976e-05 0.250141 55.845 -3.19972e-07 
280 1 0.0357768 0.0357721 0.25004 55.845 -1.91629e-07 
282 1 0.07142 0.0713299 0.249973 55.845 -3.31498e-07 
284 1 0.107082 0.107134 0.250049 55.845 -2.06946e-07 
292 1 0.0713674 6.44186e-06 0.249953 55.845 -2.72307e-07 
294 1 0.107111 0.035707 0.249841 55.845 -2.64298e-07 
16 1 0.14293 0.106994 0.459684 55.845 -2.94024e-07 
21 1 0.142905 0.0357731 0.459498 55.845 -2.8246e-07 
22 1 0.178587 0.071342 0.45971 55.845 -4.53308e-07 
23 1 0.214339 0.107142 0.459486 55.845 -5.93323e-07 
27 1 0.178608 3.32339e-05 0.45959 55.845 -3.88154e-07 
28 1 0.214366 0.0357789 0.459477 55.845 -5.82536e-07 
29 1 0.250076 0.0715051 0.459625 55.845 -7.29563e-07 
81 1 0.142824 0.107143 0.374978 55.845 4.89374e-07 
91 1 0.142834 0.0357648 0.374617 55.845 5.19459e-07 
92 1 0.142875 0.0714408 0.416691 55.845 -1.66761e-07 
93 1 0.178566 0.0713776 0.374657 55.845 3.34078e-07 
94 1 0.178565 0.107224 0.416805 55.845 -1.23025e-07 
95 1 0.214257 0.107201 0.374852 55.845 4.70832e-07 
102 1 0.142872 2.00315e-05 0.416664 55.845 -2.43055e-07 
103 1 0.178657 5.18294e-05 0.374642 55.845 4.549e-07 
104 1 0.178602 0.0356273 0.41683 55.845 -1.00833e-08 
105 1 0.214299 0.0357978 0.374794 55.845 5.04938e-07 
106 1 0.214264 0.0714678 0.416833 55.845 -4.80258e-08 
107 1 0.250031 0.071474 0.374967 55.845 4.84541e-07 
108 1 0.250075 0.107228 0.416932 55.845 3.5974e-08 
118 1 0.214291 -1.61007e-05 0.416843 55.845 -6.08799e-08 
120 1 0.250081 0.0357396 0.416778 55.845 -2.70389e-08 
183 1 0.142943 0.107168 0.292767 55.845 -3.38058e-07 
193 1 0.142912 0.0357292 0.292559 55.845 -4.31612e-07 
194 1 0.142841 0.0715069 0.333941 55.845 -1.74449e-07 
195 1 0.178655 0.0714147 0.292771 55.845 -4.33756e-07 
196 1 0.178582 0.107154 0.333996 55.845 1.54553e-07 
197 1 0.214324 0.107146 0.292848 55.845 -6.17101e-07 
204 1 0.142847 2.74793e-05 0.334038 55.845 -1.19691e-07 
205 1 0.178565 -5.56705e-05 0.292798 55.845 -3.99034e-07 
206 1 0.178618 0.0357355 0.333831 55.845 8.07142e-09 
207 1 0.214333 0.0356677 0.292713 55.845 -5.30861e-07 
208 1 0.214316 0.0714764 0.334152 55.845 1.56184e-07 
209 1 0.250018 0.071474 0.292739 55.845 -6.67276e-07 
210 1 0.249995 0.107253 0.3342 55.845 1.72214e-07 
220 1 0.214307 4.71073e-05 0.334026 55.845 -5.80809e-08 
222 1 0.249997 0.0357579 0.334282 55.845 8.36133e-08 
296 1 0.142853 0.071421 0.249977 55.845 -1.40324e-07 
298 1 0.178503 0.107195 0.249893 55.845 1.48276e-08 
306 1 0.14292 -6.33298e-05 0.250014 55.845 -1.90408e-07 
308 1 0.178578 0.0356949 0.24987 55.845 -2.12063e-07 
310 1 0.214261 0.0714512 0.250079 55.845 1.03572e-07 
312 1 0.250051 0.107188 0.249962 55.845 -7.47347e-09 
322 1 0.214221 3.12476e-06 0.250157 55.845 -3.01301e-07 
324 1 0.249973 0.0358095 0.25008 55.845 -2.43795e-08 
30 1 0.285586 0.107107 0.45976 55.845 -6.73938e-07 
35 1 0.250058 4.4999e-05 0.459625 55.845 -4.69284e-07 
36 1 0.285719 0.0357742 0.459569 55.845 -6.61272e-07 
37 1 0.321447 0.0713752 0.459528 55.845 -5.71014e-07 
38 1 0.357086 0.107099 0.459711 55.845 -4.83265e-07 
42 1 0.321394 -4.22994e-05 0.459612 55.845 -3.57922e-07 
43 1 0.357219 0.0357382 0.459654 55.845 -3.8205e-07 
109 1 0.285749 0.107232 0.375012 55.845 6.12967e-07 
119 1 0.250001 2.75893e-05 0.374904 55.845 4.91338e-07 
121 1 0.285758 0.0357391 0.374785 55.845 6.88698e-07 
122 1 0.285705 0.0715024 0.416876 55.845 -7.16721e-09 
123 1 0.321421 0.0715439 0.374849 55.845 7.08603e-07 
124 1 0.32129 0.107096 0.416957 55.845 -1.98972e-07 
125 1 0.357115 0.107215 0.374751 55.845 8.73376e-07 
133 1 0.321466 4.15101e-05 0.374985 55.845 7.35717e-07 
134 1 0.321498 0.0357632 0.416701 55.845 -1.21847e-07 
135 1 0.357237 0.0357164 0.37488 55.845 8.24351e-07 
136 1 0.357204 0.0714096 0.416698 55.845 -3.00494e-07 
211 1 0.285667 0.10725 0.292797 55.845 -7.36795e-07 
221 1 0.250026 -9.67378e-06 0.292708 55.845 -4.35296e-07 
223 1 0.285772 0.0357067 0.292806 55.845 -4.86084e-07 
224 1 0.2856 0.071526 0.334135 55.845 1.48137e-07 
225 1 0.321362 0.0715075 0.292831 55.845 -5.89346e-07 
226 1 0.321486 0.107262 0.334119 55.845 -5.36527e-08 
227 1 0.357144 0.107223 0.292691 55.845 -4.03377e-07 
235 1 0.321421 7.60165e-05 0.292838 55.845 -3.23219e-07 
236 1 0.3214 0.0358194 0.334022 55.845 -1.51714e-07 
237 1 0.357135 0.035726 0.292844 55.845 -4.42299e-07 
238 1 0.357191 0.0715704 0.334069 55.845 -2.31133e-07 
326 1 0.285657 0.0714113 0.249988 55.845 3.39284e-08 
328 1 0.321452 0.107138 0.250019 55.845 -2.05342e-07 
338 1 0.321374 0.0357004 0.250138 55.845 -2.65999e-07 
340 1 0.35717 0.0714541 0.250253 55.845 -2.63805e-07 
44 1 0.392934 0.0715895 0.459454 55.845 -3.50295e-07 
45 1 0.428616 0.10726 0.45953 55.845 -3.72681e-07 
47 1 0.392788 -9.69603e-06 0.459525 55.845 -3.78424e-07 
48 1 0.428615 0.0357888 0.459493 55.845 -3.84936e-07 
49 1 0.464278 0.0714304 0.459596 55.845 -4.93197e-07 
50 1 0.464297 -0.000142708 0.459609 55.845 -3.67638e-07 
137 1 0.392959 0.0714043 0.374846 55.845 8.71093e-07 
138 1 0.392839 0.107205 0.416756 55.845 -2.53857e-07 
139 1 0.428569 0.107199 0.374787 55.845 7.35132e-07 
144 1 0.392794 -2.40909e-05 0.374747 55.845 8.28443e-07 
145 1 0.392888 0.0357014 0.416799 55.845 -3.52166e-07 
146 1 0.428667 0.0357803 0.374901 55.845 7.2026e-07 
147 1 0.428546 0.0715571 0.416811 55.845 -3.1909e-07 
148 1 0.464398 0.0714819 0.374838 55.845 6.68131e-07 
149 1 0.464307 0.107209 0.416806 55.845 -1.3637e-07 
150 1 0.42853 -2.32443e-05 0.416712 55.845 -1.84832e-07 
151 1 0.464336 -0.000129267 0.374765 55.845 6.99563e-07 
152 1 0.464408 0.0355899 0.416888 55.845 -2.62711e-07 
239 1 0.39288 0.0715738 0.293001 55.845 -5.71016e-07 
240 1 0.392893 0.10724 0.33405 55.845 -2.09171e-07 
241 1 0.428555 0.10715 0.29279 55.845 -4.4928e-07 
246 1 0.392892 9.41892e-06 0.292749 55.845 -9.47533e-08 
247 1 0.392901 0.035695 0.334005 55.845 -3.44817e-07 
248 1 0.428577 0.0356444 0.292723 55.845 -2.42654e-07 
249 1 0.428619 0.0713354 0.333993 55.845 -3.4802e-07 
250 1 0.464189 0.0714997 0.292745 55.845 -1.85239e-07 
251 1 0.464313 0.107171 0.334146 55.845 -2.84223e-07 
252 1 0.428575 -3.2886e-05 0.334086 55.845 -3.5504e-07 
253 1 0.4642 7.67318e-06 0.292775 55.845 1.12875e-07 
254 1 0.464393 0.0357587 0.334053 55.845 -3.38376e-07 
342 1 0.392833 0.107218 0.249997 55.845 -2.67716e-07 
349 1 0.392898 0.0356861 0.250168 55.845 -5.15909e-07 
351 1 0.428472 0.0713951 0.250138 55.845 -5.08872e-07 
353 1 0.464359 0.107218 0.250064 55.845 -4.48644e-07 
354 1 0.428565 -2.46102e-06 0.250059 55.845 -5.41364e-07 
356 1 0.4643 0.0356862 0.250124 55.845 -5.87343e-07 
1 1 0.000106345 0.178576 0.459496 55.845 -4.91891e-07 
2 1 0.0358097 0.214279 0.459658 55.845 -4.44816e-07 
4 1 0.0357712 0.142853 0.459483 55.845 -3.779e-07 
5 1 0.0714235 0.178539 0.459623 55.845 -3.82856e-07 
6 1 0.107163 0.214273 0.459657 55.845 -3.45622e-07 
10 1 0.107054 0.142763 0.459713 55.845 -3.1006e-07 
51 1 8.15239e-05 0.178554 0.374701 55.845 6.40228e-07 
52 1 5.05119e-05 0.214266 0.416922 55.845 -2.58645e-09 
53 1 0.0356879 0.214338 0.37494 55.845 6.00869e-07 
54 1 0.0358272 0.249971 0.416967 55.845 5.40892e-08 
56 1 3.88722e-05 0.142853 0.416659 55.845 -1.43709e-07 
57 1 0.0356951 0.142809 0.374757 55.845 7.22191e-07 
58 1 0.0357304 0.178583 0.416801 55.845 -8.69284e-08 
59 1 0.0715483 0.178607 0.374835 55.845 6.53515e-07 
60 1 0.0714503 0.214321 0.416972 55.845 -4.81563e-08 
61 1 0.107136 0.214298 0.374899 55.845 5.43835e-07 
62 1 0.107149 0.250024 0.416846 55.845 -2.03452e-08 
68 1 0.0714772 0.142827 0.416789 55.845 -1.70655e-07 
69 1 0.107212 0.142875 0.374929 55.845 6.89308e-07 
70 1 0.10712 0.178486 0.417009 55.845 -4.82974e-08 
153 1 7.14621e-05 0.178695 0.292758 55.845 -7.22848e-07 
154 1 4.86109e-05 0.214291 0.334078 55.845 6.0923e-08 
155 1 0.0357858 0.214354 0.292722 55.845 -4.96813e-07 
156 1 0.0358229 0.249977 0.334001 55.845 3.67539e-07 
158 1 2.89363e-05 0.142849 0.333855 55.845 -2.56531e-07 
159 1 0.0358072 0.142829 0.292853 55.845 -4.94738e-07 
160 1 0.0357593 0.178531 0.334039 55.845 -1.65996e-07 
161 1 0.0715214 0.178566 0.292549 55.845 -3.22149e-07 
162 1 0.0715038 0.214351 0.333964 55.845 1.00898e-07 
163 1 0.107107 0.214344 0.292695 55.845 -1.53223e-07 
164 1 0.107206 0.250053 0.333919 55.845 -2.95044e-08 
170 1 0.0714483 0.142879 0.334127 55.845 -1.80521e-07 
171 1 0.10712 0.142872 0.292708 55.845 -1.41236e-07 
172 1 0.107184 0.178625 0.334025 55.845 2.76687e-08 
256 1 4.10112e-05 0.2143 0.250135 55.845 -1.87388e-07 
258 1 0.03571 0.250082 0.250016 55.845 2.18003e-07 
260 1 2.63798e-05 0.142843 0.249922 55.845 -4.51162e-07 
262 1 0.0358135 0.178555 0.249928 55.845 -4.64573e-07 
264 1 0.0715332 0.214306 0.249997 55.845 -2.01173e-07 
266 1 0.107197 0.250097 0.250002 55.845 -3.03868e-07 
272 1 0.0714822 0.142811 0.25001 55.845 -3.51733e-07 
274 1 0.107256 0.17862 0.250016 55.845 -2.42912e-07 
11 1 0.142874 0.178544 0.459719 55.845 -3.16021e-07 
12 1 0.178584 0.214272 0.459723 55.845 -2.37088e-07 
17 1 0.178528 0.142926 0.459564 55.845 -3.65006e-07 
18 1 0.214337 0.178541 0.459516 55.845 -4.04231e-07 
19 1 0.249928 0.214421 0.459678 55.845 -4.30661e-07 
24 1 0.249908 0.142889 0.459612 55.845 -5.88719e-07 
71 1 0.142794 0.178596 0.374977 55.845 5.2393e-07 
72 1 0.142918 0.214281 0.416922 55.845 -1.19663e-07 
73 1 0.178483 0.21425 0.374956 55.845 6.03272e-07 
82 1 0.142873 0.142775 0.41688 55.845 -1.93659e-07 
83 1 0.17859 0.142879 0.374784 55.845 4.82297e-07 
84 1 0.178557 0.17855 0.416945 55.845 -1.34959e-07 
85 1 0.214292 0.178592 0.374881 55.845 3.81436e-07 
86 1 0.214253 0.214341 0.416801 55.845 -1.31466e-07 
87 1 0.250057 0.214317 0.374834 55.845 6.29069e-07 
96 1 0.214306 0.142853 0.416964 55.845 6.4163e-08 
97 1 0.249977 0.142932 0.374958 55.845 4.27015e-07 
98 1 0.250091 0.178575 0.416865 55.845 -3.06251e-08 
173 1 0.142914 0.178538 0.292878 55.845 -1.52998e-07 
174 1 0.142829 0.21431 0.334141 55.845 -6.70649e-08 
175 1 0.178515 0.214337 0.292902 55.845 -3.33302e-07 
184 1 0.142914 0.142821 0.334087 55.845 9.63057e-08 
185 1 0.17864 0.142957 0.292748 55.845 -3.26459e-07 
186 1 0.178475 0.178551 0.334058 55.845 6.26177e-08 
187 1 0.214271 0.178548 0.292797 55.845 -4.66948e-07 
188 1 0.214246 0.214275 0.334122 55.845 -1.79638e-07 
189 1 0.249923 0.214257 0.292682 55.845 -1.95184e-07 
198 1 0.214386 0.142887 0.334107 55.845 1.17435e-07 
199 1 0.250058 0.142915 0.292952 55.845 -8.66598e-07 
200 1 0.249995 0.178583 0.334018 55.845 -1.05065e-07 
276 1 0.14276 0.214315 0.250129 55.845 -4.17251e-07 
286 1 0.142878 0.142939 0.24999 55.845 4.76479e-09 
288 1 0.178446 0.178687 0.250252 55.845 -2.05745e-07 
290 1 0.214233 0.214373 0.250177 55.845 -4.08471e-07 
300 1 0.21428 0.142885 0.250115 55.845 -2.0953e-07 
302 1 0.249934 0.178635 0.250091 55.845 -3.76913e-07 
25 1 0.285696 0.17869 0.459541 55.845 -5.68233e-07 
26 1 0.321436 0.214336 0.459562 55.845 -3.81268e-07 
31 1 0.321475 0.142765 0.459728 55.845 -6.3946e-07 
32 1 0.357177 0.178573 0.459724 55.845 -4.23813e-07 
99 1 0.285806 0.178535 0.374766 55.845 5.98367e-07 
100 1 0.285744 0.214345 0.416917 55.845 -1.49394e-07 
101 1 0.321332 0.214279 0.374857 55.845 6.4753e-07 
110 1 0.285746 0.1429 0.416954 55.845 -7.91563e-08 
111 1 0.321486 0.142843 0.374933 55.845 7.59256e-07 
112 1 0.321447 0.178549 0.416962 55.845 -2.123e-07 
113 1 0.357153 0.178622 0.374926 55.845 7.61492e-07 
114 1 0.357172 0.214311 0.416897 55.845 -2.80254e-07 
126 1 0.357238 0.142785 0.41696 55.845 -3.09918e-07 
201 1 0.285695 0.178556 0.292632 55.845 -5.07136e-07 
202 1 0.285732 0.214282 0.334022 55.845 -2.31379e-07 
203 1 0.321584 0.214188 0.292568 55.845 -2.16198e-07 
212 1 0.285797 0.142923 0.334158 55.845 -1.3986e-07 
213 1 0.321436 0.142935 0.292758 55.845 -5.08899e-07 
214 1 0.321517 0.178642 0.334015 55.845 -1.69096e-07 