ITEM: TIMESTEP
2800
ITEM: NUMBER OF ATOMS
5880
ITEM: BOX BOUNDS pp pp ff
-27.9178 27.9178
-27.9178 27.9178
0 34.092
ITEM: ATOMS id type xs ys zs mass q 
259 1 2.20436e-05 0.107127 0.210504 55.845 -2.00923e-07 
267 1 -5.85624e-05 0.0357852 0.210468 55.845 2.87648e-07 
269 1 0.035624 0.0713685 0.210507 55.845 1.82932e-07 
271 1 0.0713978 0.107127 0.210559 55.845 -4.49915e-08 
279 1 0.0357446 3.2964e-05 0.210536 55.845 -3.8033e-07 
281 1 0.0714215 0.0357603 0.210461 55.845 1.34945e-07 
283 1 0.107103 0.0714324 0.210571 55.845 6.96773e-07 
293 1 0.107172 9.20777e-06 0.210375 55.845 -1.75165e-07 
361 1 1.34718e-05 0.107205 0.12695 55.845 -1.68648e-07 
369 1 -2.51631e-05 0.0357006 0.127089 55.845 2.06259e-07 
370 1 2.36606e-05 0.0714699 0.169424 55.845 -1.74728e-07 
371 1 0.0357251 0.0714158 0.127003 55.845 -1.61179e-07 
372 1 0.0357689 0.10715 0.169266 55.845 -1.56255e-07 
373 1 0.071449 0.107192 0.127055 55.845 9.07771e-08 
380 1 -4.19478e-05 -9.02308e-06 0.169261 55.845 -2.2786e-07 
381 1 0.0356528 6.97932e-06 0.127009 55.845 -9.27086e-08 
382 1 0.0357521 0.0356805 0.16929 55.845 -9.64036e-08 
383 1 0.0713771 0.0357266 0.127042 55.845 7.39904e-08 
384 1 0.0713836 0.0713857 0.169243 55.845 -6.77937e-07 
385 1 0.107144 0.0714365 0.127087 55.845 2.91866e-07 
386 1 0.1071 0.107159 0.169193 55.845 -2.62653e-07 
394 1 0.0714352 -5.9246e-06 0.169233 55.845 -2.83408e-07 
395 1 0.107172 1.06302e-05 0.126954 55.845 2.61241e-07 
396 1 0.107199 0.0357204 0.169199 55.845 -2.48071e-07 
463 1 0 0.107143 0.0416667 55.845 -1.01619e-07 
471 1 0 0.0357143 0.0416667 55.845 -1.67535e-07 
472 1 -4.82448e-05 0.0714521 0.0841938 55.845 4.3204e-07 
473 1 0.0357143 0.0714286 0.0416667 55.845 -3.82794e-07 
474 1 0.035708 0.107145 0.0841442 55.845 -1.84029e-07 
475 1 0.0714286 0.107143 0.0416667 55.845 1.83136e-07 
482 1 -6.0557e-06 -7.54143e-05 0.0841147 55.845 -1.47787e-07 
483 1 0.0357143 0 0.0416667 55.845 2.13008e-07 
484 1 0.0357072 0.0357569 0.0841108 55.845 -5.6825e-08 
485 1 0.0714286 0.0357143 0.0416667 55.845 -2.16142e-07 
486 1 0.0714239 0.0714743 0.0841465 55.845 -7.61567e-08 
487 1 0.107143 0.0714286 0.0416667 55.845 3.59219e-08 
488 1 0.107216 0.107119 0.0841455 55.845 -1.98965e-07 
496 1 0.0714475 -1.11179e-05 0.0840804 55.845 7.54276e-08 
497 1 0.107143 0 0.0416667 55.845 3.54398e-07 
498 1 0.107098 0.0357365 0.0841138 55.845 -6.94474e-09 
567 1 0 0.0714286 0 55.845 -1.28044e-07 
568 1 0.0357143 0.107143 0 55.845 1.23939e-08 
572 1 0 0 0 55.845 -1.92656e-07 
573 1 0.0357143 0.0357143 0 55.845 -1.63171e-07 
574 1 0.0714286 0.0714286 0 55.845 -1.86035e-07 
575 1 0.107143 0.107143 0 55.845 -1.1771e-07 
579 1 0.0714286 0 0 55.845 -4.55661e-08 
580 1 0.107143 0.0357143 0 55.845 -3.46241e-08 
285 1 0.142828 0.107147 0.21054 55.845 1.72577e-07 
295 1 0.142858 0.0357432 0.210455 55.845 4.15513e-07 
297 1 0.17849 0.0714078 0.210544 55.845 4.89661e-07 
299 1 0.214314 0.107086 0.210389 55.845 -2.97526e-07 
307 1 0.178519 -9.335e-06 0.210542 55.845 -1.65659e-07 
309 1 0.214209 0.0357178 0.210719 55.845 3.23609e-07 
311 1 0.250001 0.0714279 0.210533 55.845 5.97536e-07 
387 1 0.14287 0.107167 0.127068 55.845 5.02098e-07 
397 1 0.142894 0.0356921 0.127075 55.845 6.39752e-07 
398 1 0.142812 0.0714483 0.169251 55.845 -5.95174e-07 
399 1 0.178543 0.0714551 0.127005 55.845 3.14539e-07 
400 1 0.178512 0.107112 0.169342 55.845 -4.27357e-07 
401 1 0.214282 0.107213 0.127149 55.845 -5.63527e-08 
408 1 0.142872 -1.38249e-05 0.169241 55.845 -1.42144e-07 
409 1 0.178638 1.40246e-05 0.127065 55.845 4.23987e-07 
410 1 0.178636 0.0357308 0.169266 55.845 -5.8107e-07 
411 1 0.214276 0.0357225 0.127077 55.845 2.73229e-07 
412 1 0.214253 0.0713598 0.169325 55.845 -4.25712e-07 
413 1 0.250004 0.0713874 0.12702 55.845 5.44315e-07 
414 1 0.249967 0.10714 0.169303 55.845 1.98093e-07 
424 1 0.2143 -7.71113e-06 0.169231 55.845 -6.26672e-07 
426 1 0.250029 0.0356703 0.169356 55.845 -1.31123e-07 
489 1 0.142857 0.107143 0.0416667 55.845 5.14421e-07 
499 1 0.142857 0.0357143 0.0416667 55.845 1.57176e-07 
500 1 0.142923 0.0715003 0.084033 55.845 8.85697e-08 
501 1 0.178571 0.0714286 0.0416667 55.845 1.371e-08 
502 1 0.178576 0.107202 0.0841316 55.845 -2.76445e-07 
503 1 0.214286 0.107143 0.0416667 55.845 -2.46879e-08 
510 1 0.142911 -7.71933e-06 0.0841168 55.845 -4.57023e-09 
511 1 0.178571 0 0.0416667 55.845 3.11333e-07 
512 1 0.178571 0.0357241 0.0840158 55.845 -3.005e-07 
513 1 0.214286 0.0357143 0.0416667 55.845 -5.01062e-08 
514 1 0.214284 0.0713967 0.0841672 55.845 -1.84328e-07 
515 1 0.25 0.0714286 0.0416667 55.845 1.20578e-07 
516 1 0.24997 0.107169 0.0841954 55.845 2.50365e-08 
526 1 0.214292 -9.84441e-06 0.08413 55.845 -6.57811e-07 
528 1 0.249976 0.0356592 0.0841036 55.845 -1.88573e-07 
581 1 0.142857 0.0714286 0 55.845 -5.43314e-08 
582 1 0.178571 0.107143 0 55.845 -1.39423e-07 
586 1 0.142857 0 0 55.845 1.4285e-08 
587 1 0.178571 0.0357143 0 55.845 -1.21974e-07 
588 1 0.214286 0.0714286 0 55.845 -3.7017e-07 
589 1 0.25 0.107143 0 55.845 -1.43254e-07 
594 1 0.214286 0 0 55.845 -4.61227e-07 
595 1 0.25 0.0357143 0 55.845 -6.76572e-08 
313 1 0.285697 0.107201 0.210479 55.845 5.82806e-08 
323 1 0.249981 8.07209e-06 0.210581 55.845 -1.17938e-07 
325 1 0.285692 0.0356982 0.210475 55.845 3.90375e-07 
327 1 0.321449 0.0715244 0.210405 55.845 4.70767e-07 
329 1 0.357138 0.107222 0.210422 55.845 2.37606e-07 
337 1 0.321474 8.68809e-06 0.2106 55.845 -5.83297e-08 
339 1 0.357164 0.035808 0.210536 55.845 2.89624e-07 
415 1 0.285664 0.10712 0.126868 55.845 5.15504e-07 
425 1 0.250028 4.14945e-05 0.127055 55.845 -5.14315e-08 
427 1 0.285688 0.0356935 0.127111 55.845 6.59897e-07 
428 1 0.285679 0.0714207 0.169282 55.845 -1.30042e-07 
429 1 0.321442 0.0713502 0.126996 55.845 7.19845e-07 
430 1 0.321385 0.107195 0.169252 55.845 -4.52067e-07 
431 1 0.35713 0.107164 0.126905 55.845 2.68436e-07 
439 1 0.321471 -8.67653e-06 0.126995 55.845 4.41466e-07 
440 1 0.321472 0.0357113 0.169283 55.845 -4.89466e-07 
441 1 0.357174 0.0356804 0.127064 55.845 5.82229e-07 
442 1 0.357119 0.0714593 0.169263 55.845 -9.37046e-07 
517 1 0.285714 0.107143 0.0416667 55.845 3.58257e-07 
527 1 0.25 0 0.0416667 55.845 -3.8286e-08 
529 1 0.285714 0.0357143 0.0416667 55.845 3.61934e-07 
530 1 0.285777 0.0713295 0.0840825 55.845 3.35782e-07 
531 1 0.321429 0.0714286 0.0416667 55.845 3.20884e-07 
532 1 0.321382 0.107075 0.084149 55.845 -6.36445e-07 
533 1 0.357143 0.107143 0.0416667 55.845 7.38478e-08 
603 1 0.357143 0.0714286 0 55.845 -3.82748e-07 
541 1 0.321429 0 0.0416667 55.845 3.90681e-07 
542 1 0.321468 0.0356891 0.0841636 55.845 -3.59087e-07 
543 1 0.357143 0.0357143 0.0416667 55.845 3.23703e-07 
544 1 0.357109 0.0713893 0.0843073 55.845 -5.64525e-07 
602 1 0.321429 0.0357143 0 55.845 -1.89691e-08 
596 1 0.285714 0.0714286 0 55.845 6.92251e-08 
597 1 0.321429 0.107143 0 55.845 -3.33369e-07 
612 1 0.464286 0.0357143 0 55.845 -1.33719e-07 
611 1 0.428571 0 0 55.845 -2.9785e-07 
610 1 0.464286 0.107143 0 55.845 -9.55269e-08 
609 1 0.428571 0.0714286 0 55.845 6.39252e-08 
608 1 0.392857 0.0357143 0 55.845 -1.95329e-07 
341 1 0.392817 0.071467 0.210584 55.845 4.41051e-07 
343 1 0.428617 0.107148 0.210572 55.845 2.30603e-07 
348 1 0.392809 1.10301e-05 0.210524 55.845 2.8039e-07 
350 1 0.428623 0.0357262 0.210502 55.845 1.52504e-07 
352 1 0.464304 0.0713854 0.210558 55.845 5.42923e-07 
355 1 0.464223 3.27285e-05 0.210481 55.845 2.50279e-07 
443 1 0.392884 0.0714178 0.127021 55.845 2.94106e-07 
444 1 0.392833 0.107135 0.169286 55.845 -2.62033e-07 
445 1 0.428645 0.107103 0.127147 55.845 6.14193e-07 
604 1 0.392857 0.107143 0 55.845 -4.68097e-08 
450 1 0.392865 -3.83267e-05 0.127088 55.845 6.51882e-07 
451 1 0.392894 0.0357463 0.169362 55.845 -7.81083e-07 
452 1 0.428635 0.0357587 0.127109 55.845 3.41897e-07 
453 1 0.428561 0.0714146 0.169338 55.845 -5.93856e-07 
454 1 0.464235 0.0713952 0.127136 55.845 5.89216e-07 
455 1 0.464303 0.107148 0.16928 55.845 -3.09816e-07 
456 1 0.428593 1.55019e-05 0.169126 55.845 -5.48893e-07 
457 1 0.464327 -7.19339e-05 0.127015 55.845 4.60977e-07 
458 1 0.464307 0.0357132 0.169358 55.845 -4.59755e-07 
545 1 0.392857 0.0714286 0.0416667 55.845 1.23019e-07 
546 1 0.392883 0.107102 0.0841341 55.845 -1.73973e-07 
547 1 0.428571 0.107143 0.0416667 55.845 6.13959e-07 
552 1 0.392857 0 0.0416667 55.845 2.29537e-07 
553 1 0.392788 0.0357147 0.0843061 55.845 -6.83496e-07 
554 1 0.428571 0.0357143 0.0416667 55.845 3.05695e-07 
555 1 0.428541 0.0713782 0.0840645 55.845 -3.28583e-07 
556 1 0.464286 0.0714286 0.0416667 55.845 3.99075e-07 
557 1 0.464288 0.107182 0.0841381 55.845 -7.07976e-08 
558 1 0.428567 -1.42802e-05 0.0841141 55.845 -5.27384e-07 
559 1 0.464286 0 0.0416667 55.845 3.69184e-07 
560 1 0.464244 0.0356325 0.0842281 55.845 -4.59023e-07 
255 1 1.26879e-05 0.178607 0.210591 55.845 2.82489e-07 
257 1 0.0356932 0.214405 0.210577 55.845 3.64018e-07 
261 1 0.0356107 0.142868 0.210528 55.845 -1.1332e-07 
263 1 0.0714172 0.178586 0.210461 55.845 6.19315e-07 
265 1 0.10708 0.2143 0.210504 55.845 4.32152e-07 
273 1 0.107078 0.142799 0.210434 55.845 3.05074e-07 
357 1 -2.58623e-06 0.178539 0.127045 55.845 2.03186e-08 
358 1 1.47818e-05 0.214344 0.169282 55.845 -4.16381e-07 
359 1 0.0357334 0.21425 0.126992 55.845 4.06376e-07 
360 1 0.0357541 0.250028 0.169303 55.845 -5.92328e-07 
362 1 -2.36774e-05 0.142905 0.169309 55.845 -3.01371e-07 
363 1 0.0357284 0.142849 0.127018 55.845 2.68603e-08 
364 1 0.035601 0.178564 0.169456 55.845 -2.96308e-07 
365 1 0.0713758 0.178527 0.127033 55.845 4.29257e-07 
366 1 0.0713532 0.214277 0.169241 55.845 -8.57102e-07 
367 1 0.107125 0.21429 0.126954 55.845 1.30771e-07 
368 1 0.107131 0.249975 0.169309 55.845 -7.47356e-07 
374 1 0.0713296 0.142815 0.169384 55.845 -4.497e-07 
375 1 0.107116 0.142904 0.127031 55.845 6.51892e-07 
376 1 0.107126 0.178624 0.169267 55.845 -5.21734e-07 
459 1 0 0.178571 0.0416667 55.845 -2.35318e-08 
460 1 -5.02444e-05 0.214333 0.0841886 55.845 2.68748e-07 
461 1 0.0357143 0.214286 0.0416667 55.845 -4.27779e-08 
462 1 0.0356793 0.25002 0.0840327 55.845 -2.09405e-07 
464 1 3.81787e-06 0.142823 0.0841265 55.845 -7.64205e-08 
465 1 0.0357143 0.142857 0.0416667 55.845 2.15843e-07 
466 1 0.0356483 0.178541 0.084016 55.845 -1.28269e-07 
467 1 0.0714286 0.178571 0.0416667 55.845 1.44455e-07 
468 1 0.0714084 0.214272 0.0840738 55.845 -1.99068e-07 
469 1 0.107143 0.214286 0.0416667 55.845 -1.45101e-07 
470 1 0.107132 0.250062 0.0842044 55.845 -3.30714e-07 
476 1 0.0714065 0.142777 0.0841779 55.845 -1.46076e-07 
477 1 0.107143 0.142857 0.0416667 55.845 4.26615e-07 
478 1 0.107121 0.178556 0.0840952 55.845 -3.98669e-07 
561 1 0 0.214286 0 55.845 -1.83157e-07 
562 1 0.0357143 0.25 0 55.845 -7.46302e-08 
563 1 0 0.142857 0 55.845 -2.82888e-07 
564 1 0.0357143 0.178571 0 55.845 6.23603e-08 
565 1 0.0714286 0.214286 0 55.845 -2.86436e-08 
566 1 0.107143 0.25 0 55.845 -4.14002e-08 
569 1 0.0714286 0.142857 0 55.845 -2.20066e-07 
570 1 0.107143 0.178571 0 55.845 -4.2222e-07 
275 1 0.14283 0.178529 0.21043 55.845 5.25456e-07 
277 1 0.178618 0.214378 0.210447 55.845 4.14445e-07 
287 1 0.178578 0.142824 0.21053 55.845 -3.0699e-07 
289 1 0.214264 0.178626 0.21048 55.845 1.25707e-07 
291 1 0.24996 0.214331 0.210463 55.845 7.20059e-07 
301 1 0.249949 0.142812 0.210567 55.845 -3.54982e-07 
377 1 0.1428 0.178588 0.126936 55.845 3.0738e-07 
378 1 0.142902 0.214274 0.169309 55.845 -5.31791e-07 
379 1 0.178615 0.214307 0.12687 55.845 5.77175e-08 
388 1 0.142837 0.142886 0.169301 55.845 -3.46812e-07 
389 1 0.178595 0.142865 0.127071 55.845 2.63621e-08 
390 1 0.178549 0.178635 0.169175 55.845 -3.5572e-07 
391 1 0.214309 0.178549 0.127027 55.845 -5.25578e-08 
392 1 0.214285 0.21427 0.169334 55.845 -2.05732e-07 
393 1 0.249995 0.214271 0.126959 55.845 6.85795e-07 
402 1 0.214304 0.14284 0.169353 55.845 -2.7933e-07 
403 1 0.24996 0.142851 0.127102 55.845 -1.31106e-07 
404 1 0.250006 0.178561 0.169279 55.845 -1.02846e-07 
479 1 0.142857 0.178571 0.0416667 55.845 -5.40017e-08 
480 1 0.142868 0.214299 0.0841668 55.845 -2.37903e-08 
481 1 0.178571 0.214286 0.0416667 55.845 -1.8119e-07 
490 1 0.142863 0.142868 0.0840906 55.845 -2.29319e-07 
491 1 0.178571 0.142857 0.0416667 55.845 7.39537e-08 
492 1 0.178571 0.178489 0.0840523 55.845 -6.01228e-08 
493 1 0.214286 0.178571 0.0416667 55.845 -4.74961e-08 
494 1 0.214343 0.214288 0.0841585 55.845 4.41011e-07 
495 1 0.25 0.214286 0.0416667 55.845 2.68198e-07 
504 1 0.214325 0.142852 0.0840981 55.845 -2.82552e-07 
505 1 0.25 0.142857 0.0416667 55.845 2.58096e-07 
506 1 0.250017 0.178547 0.0841432 55.845 1.98635e-08 
571 1 0.142857 0.214286 0 55.845 -2.61855e-08 
576 1 0.142857 0.142857 0 55.845 -2.2503e-07 
577 1 0.178571 0.178571 0 55.845 -1.4599e-07 
578 1 0.214286 0.214286 0 55.845 2.22047e-07 
583 1 0.214286 0.142857 0 55.845 -1.44828e-07 
584 1 0.25 0.178571 0 55.845 1.68339e-08 
303 1 0.285699 0.178577 0.210557 55.845 2.19825e-07 
305 1 0.321427 0.214291 0.210489 55.845 4.69525e-07 
315 1 0.32148 0.142888 0.210491 55.845 -3.54123e-07 
317 1 0.357157 0.178603 0.210478 55.845 1.44256e-07 
405 1 0.285658 0.178555 0.127123 55.845 2.52564e-07 
406 1 0.285674 0.214371 0.169344 55.845 -2.15763e-07 
407 1 0.321415 0.214214 0.127096 55.845 5.72511e-07 
416 1 0.285708 0.142851 0.169183 55.845 -3.46411e-07 
417 1 0.321401 0.142944 0.127102 55.845 1.57311e-07 
418 1 0.321349 0.178595 0.169286 55.845 -5.99215e-07 
419 1 0.357204 0.178552 0.127055 55.845 3.27921e-07 
420 1 0.35719 0.214336 0.169341 55.845 -3.38028e-07 
432 1 0.357139 0.142911 0.169207 55.845 -4.28138e-07 
507 1 0.285714 0.178571 0.0416667 55.845 1.72976e-07 
508 1 0.285748 0.214219 0.084193 55.845 7.24004e-08 
509 1 0.321429 0.214286 0.0416667 55.845 1.27269e-07 
518 1 0.285739 0.142842 0.0841701 55.845 -2.5266e-07 
519 1 0.321429 0.142857 0.0416667 55.845 1.30478e-07 
520 1 0.321479 0.178594 0.0841413 55.845 -4.33537e-07 
521 1 0.357143 0.178571 0.0416667 55.845 2.64905e-07 
522 1 0.357101 0.2143 0.0839847 55.845 1.64574e-07 
534 1 0.357116 0.142873 0.0841399 55.845 -4.22084e-07 
585 1 0.285714 0.214286 0 55.845 -1.3083e-07 
590 1 0.285714 0.142857 0 55.845 -2.4447e-07 
591 1 0.321429 0.178571 0 55.845 -1.68364e-07 
592 1 0.357143 0.214286 0 55.845 4.457e-10 
598 1 0.357143 0.142857 0 55.845 -2.56661e-07 
319 1 0.392817 0.214318 0.210537 55.845 2.48949e-07 
321 1 0.428533 0.25006 0.210519 55.845 -4.41081e-08 
331 1 0.39281 0.142865 0.210455 55.845 -7.62359e-08 
333 1 0.428493 0.178602 0.210548 55.845 -2.51369e-07 
335 1 0.464236 0.214307 0.210557 55.845 -1.13022e-07 
345 1 0.464389 0.142879 0.210589 55.845 -2.84784e-07 
606 1 0.464286 0.178571 0 55.845 -2.49551e-07 
421 1 0.392781 0.214329 0.127097 55.845 1.44052e-07 
422 1 0.392836 0.250063 0.169268 55.845 -1.57235e-07 
423 1 0.428525 0.249988 0.127104 55.845 -4.20603e-08 
433 1 0.392847 0.142782 0.126988 55.845 3.68186e-07 
434 1 0.392828 0.178556 0.169264 55.845 -1.44928e-08 
435 1 0.428533 0.178537 0.126946 55.845 2.19787e-07 
436 1 0.428546 0.214261 0.169281 55.845 -2.67488e-07 
437 1 0.464286 0.214301 0.127057 55.845 -6.0199e-08 
605 1 0.428571 0.142857 0 55.845 -1.0414e-07 
446 1 0.42852 0.142886 0.169309 55.845 6.47169e-08 
447 1 0.464316 0.14287 0.127019 55.845 4.51882e-07 
448 1 0.464193 0.178618 0.169306 55.845 -4.0216e-07 
523 1 0.392857 0.214286 0.0416667 55.845 9.19498e-08 
524 1 0.39288 0.250009 0.0841126 55.845 -3.45454e-07 
525 1 0.428571 0.25 0.0416667 55.845 -8.11676e-09 
535 1 0.392857 0.142857 0.0416667 55.845 3.71465e-07 
536 1 0.39279 0.178612 0.0841228 55.845 1.17804e-07 
537 1 0.428571 0.178571 0.0416667 55.845 2.21959e-07 
538 1 0.428504 0.214243 0.0840964 55.845 -3.18302e-07 
539 1 0.464286 0.214286 0.0416667 55.845 -7.81613e-08 
548 1 0.428554 0.14277 0.084192 55.845 8.71346e-08 
549 1 0.464286 0.142857 0.0416667 55.845 4.84578e-07 
550 1 0.464333 0.178602 0.0840574 55.845 -1.28618e-07 
593 1 0.392857 0.25 0 55.845 -3.58221e-08 
599 1 0.392857 0.178571 0 55.845 1.44832e-07 
600 1 0.428571 0.214286 0 55.845 -2.21413e-07 
3 1 -9.41404e-05 0.107175 0.462995 55.845 -2.60964e-07 
7 1 -3.50945e-06 0.0356344 0.463018 55.845 -3.70612e-07 
8 1 0.0356354 0.0714794 0.46301 55.845 -3.80964e-08 
9 1 0.0713621 0.107169 0.462927 55.845 -2.3585e-07 
13 1 0.0357905 -7.18063e-05 0.463053 55.845 -4.55757e-07 
14 1 0.0713982 0.0357639 0.462986 55.845 -3.29922e-07 
15 1 0.107077 0.071485 0.463029 55.845 -7.52732e-08 
20 1 0.107057 -5.77487e-06 0.462958 55.845 -7.56331e-07 
55 1 1.10539e-05 0.107212 0.379439 55.845 3.85381e-08 
63 1 -9.185e-06 0.0356982 0.379433 55.845 -1.14698e-07 
64 1 -4.394e-05 0.0714591 0.421166 55.845 3.90708e-07 
65 1 0.0356512 0.0714362 0.379466 55.845 -6.361e-08 
66 1 0.0356415 0.107197 0.421095 55.845 1.34295e-07 
67 1 0.0713788 0.107105 0.379491 55.845 1.5712e-07 
74 1 -1.98798e-05 -6.76503e-05 0.42114 55.845 -3.6401e-07 
75 1 0.0356962 1.23718e-05 0.37951 55.845 6.48021e-08 
76 1 0.0356321 0.0357699 0.421254 55.845 3.08608e-07 
77 1 0.0713615 0.0356446 0.379397 55.845 -2.4344e-07 
78 1 0.0713812 0.0714228 0.421093 55.845 2.52713e-07 
79 1 0.107158 0.0714286 0.379434 55.845 6.48589e-08 
80 1 0.10715 0.107131 0.421146 55.845 -5.20719e-07 
88 1 0.0713998 -4.44792e-05 0.421174 55.845 1.91326e-07 
89 1 0.107071 1.12079e-05 0.379531 55.845 -1.68899e-07 
90 1 0.107119 0.0356933 0.421195 55.845 2.03723e-07 
157 1 3.3923e-05 0.107188 0.294793 55.845 9.20303e-08 
165 1 -5.38488e-05 0.0356739 0.294762 55.845 2.98287e-07 
166 1 -2.5927e-05 0.0714203 0.337395 55.845 4.25007e-07 
167 1 0.0356792 0.0714095 0.2949 55.845 1.89152e-07 
168 1 0.0357318 0.107123 0.337405 55.845 -8.43217e-08 
169 1 0.071511 0.107164 0.294867 55.845 4.80473e-07 
176 1 2.39045e-05 -4.16697e-05 0.337334 55.845 -2.73961e-07 
177 1 0.035674 -6.04592e-05 0.294761 55.845 1.49651e-07 
178 1 0.0356615 0.0356628 0.337292 55.845 2.70131e-07 
179 1 0.0714612 0.0356295 0.294727 55.845 2.92884e-07 
180 1 0.0713435 0.0714678 0.3373 55.845 2.05026e-07 
181 1 0.107104 0.0714117 0.294805 55.845 6.29667e-07 
182 1 0.107118 0.10713 0.337407 55.845 -2.87185e-07 
190 1 0.0713885 -1.78059e-05 0.3373 55.845 -2.54917e-07 
191 1 0.10726 -1.47087e-05 0.294867 55.845 1.52063e-07 
192 1 0.107124 0.0357373 0.337381 55.845 -4.10321e-08 
268 1 1.3112e-05 0.071436 0.252447 55.845 1.88387e-08 
270 1 0.0357244 0.107114 0.252424 55.845 -6.4029e-07 
278 1 -2.76087e-05 1.01489e-05 0.252155 55.845 3.47295e-10 
280 1 0.0356911 0.0356892 0.25244 55.845 -4.26922e-07 
282 1 0.0713465 0.0714239 0.252352 55.845 -4.91557e-07 
284 1 0.107133 0.107131 0.252183 55.845 -5.50956e-07 
292 1 0.071457 -2.89246e-05 0.252332 55.845 -4.83558e-07 
294 1 0.107119 0.0356797 0.252322 55.845 -5.31068e-07 
16 1 0.142833 0.107169 0.462984 55.845 -7.76192e-08 
21 1 0.142827 0.0357362 0.462975 55.845 -4.4361e-07 
22 1 0.178588 0.0714006 0.462922 55.845 -7.28764e-08 
23 1 0.214255 0.107191 0.463004 55.845 -8.25347e-08 
27 1 0.17852 -1.6299e-05 0.462969 55.845 -5.09528e-07 
28 1 0.214255 0.0357099 0.462833 55.845 -1.3415e-07 
29 1 0.24996 0.0714652 0.46289 55.845 -3.01236e-07 
81 1 0.142841 0.107166 0.37937 55.845 2.70827e-07 
91 1 0.142837 0.0356959 0.379298 55.845 -3.61556e-07 
92 1 0.142809 0.0713909 0.421172 55.845 8.47823e-08 
93 1 0.178595 0.071417 0.379518 55.845 -1.23034e-07 
94 1 0.178549 0.107182 0.421094 55.845 -6.50588e-08 
95 1 0.214267 0.107137 0.379418 55.845 -1.02138e-07 
102 1 0.142791 -3.13602e-05 0.421122 55.845 1.4961e-07 
103 1 0.178522 -2.29442e-06 0.379483 55.845 -1.57038e-08 
104 1 0.178482 0.035708 0.42118 55.845 1.40307e-07 
105 1 0.214273 0.0356487 0.379407 55.845 -7.91666e-08 
106 1 0.214228 0.0714835 0.421207 55.845 5.07555e-07 
107 1 0.250005 0.071441 0.379446 55.845 -3.8884e-08 
108 1 0.249994 0.107192 0.420984 55.845 -1.26245e-07 
118 1 0.214235 -6.40543e-05 0.421146 55.845 8.34448e-08 
120 1 0.250013 0.0357094 0.421115 55.845 5.28777e-09 
183 1 0.142768 0.107156 0.294713 55.845 6.44436e-07 
193 1 0.142826 0.0356866 0.294736 55.845 4.63189e-07 
194 1 0.142747 0.0714574 0.337348 55.845 1.75904e-07 
195 1 0.17855 0.0714351 0.294874 55.845 2.08788e-07 
196 1 0.178501 0.107239 0.337313 55.845 5.81236e-08 
197 1 0.214278 0.107114 0.294792 55.845 2.03323e-07 
204 1 0.142834 -2.47193e-05 0.337483 55.845 -1.89884e-07 
205 1 0.178538 -6.55352e-05 0.294855 55.845 -1.67216e-08 
206 1 0.178562 0.035661 0.337342 55.845 3.83937e-07 
207 1 0.214277 0.0356662 0.294979 55.845 3.54103e-07 
208 1 0.214298 0.0714243 0.337399 55.845 3.12236e-07 
209 1 0.250017 0.07145 0.294848 55.845 4.29556e-07 
210 1 0.249933 0.107168 0.33738 55.845 -1.14924e-07 
220 1 0.214201 -8.24103e-05 0.337488 55.845 -3.28965e-07 
222 1 0.250004 0.0357462 0.337329 55.845 1.80753e-07 
296 1 0.142841 0.0714873 0.252198 55.845 -1.85515e-07 
298 1 0.178547 0.107151 0.252371 55.845 -4.81296e-07 
306 1 0.142858 1.66738e-05 0.252314 55.845 -5.25727e-08 
308 1 0.178527 0.0356127 0.252436 55.845 -4.14943e-07 
310 1 0.214268 0.0713988 0.252267 55.845 -3.4031e-07 
312 1 0.249975 0.107141 0.252365 55.845 -3.02111e-07 
322 1 0.214236 -5.48586e-05 0.252295 55.845 -3.26823e-07 
324 1 0.249993 0.0356853 0.252336 55.845 -2.50582e-07 
30 1 0.285714 0.107126 0.462895 55.845 -3.47921e-07 
35 1 0.24996 7.80058e-06 0.462948 55.845 -3.87172e-08 
36 1 0.285648 0.0357236 0.462932 55.845 -2.08044e-07 
37 1 0.321373 0.0714264 0.462974 55.845 -1.95577e-08 
38 1 0.357112 0.107066 0.462893 55.845 -2.05782e-07 
42 1 0.321385 -1.39723e-05 0.46305 55.845 -1.03631e-07 
43 1 0.35712 0.035706 0.462964 55.845 9.3333e-08 
109 1 0.285758 0.107241 0.379431 55.845 5.10527e-08 
119 1 0.249938 -5.31632e-05 0.379347 55.845 4.15557e-07 
121 1 0.285671 0.0357071 0.379362 55.845 1.66684e-07 
122 1 0.285674 0.0713358 0.421044 55.845 -1.287e-08 
123 1 0.321438 0.0713706 0.379396 55.845 2.34094e-07 
124 1 0.321398 0.107102 0.421078 55.845 -2.84534e-07 
125 1 0.357119 0.10709 0.379469 55.845 -2.97271e-08 
133 1 0.321432 -1.92503e-05 0.379336 55.845 3.13148e-07 
134 1 0.321333 0.0357274 0.420987 55.845 -4.8703e-07 
135 1 0.357088 0.0357071 0.379385 55.845 3.81508e-07 
136 1 0.357096 0.071385 0.421052 55.845 1.40185e-07 
211 1 0.285689 0.107139 0.294727 55.845 4.51297e-07 
221 1 0.249979 -3.75626e-05 0.294848 55.845 3.91889e-07 
223 1 0.28574 0.0357103 0.294755 55.845 6.20191e-07 
224 1 0.285774 0.0714284 0.337393 55.845 1.30175e-07 
225 1 0.32142 0.0714288 0.294652 55.845 4.46862e-07 
226 1 0.321415 0.107173 0.337455 55.845 -2.06679e-07 
227 1 0.357073 0.107231 0.294764 55.845 5.03712e-07 
235 1 0.321433 -6.91193e-06 0.294854 55.845 2.34517e-07 
236 1 0.32144 0.035718 0.337303 55.845 -2.30176e-07 
237 1 0.357135 0.0357409 0.294864 55.845 6.13102e-07 
238 1 0.357125 0.0714687 0.337361 55.845 -1.01604e-07 
326 1 0.285699 0.0714558 0.252291 55.845 -8.82884e-08 
328 1 0.321387 0.107193 0.252255 55.845 -4.31156e-07 
338 1 0.321441 0.0357108 0.252181 55.845 -5.20528e-07 
340 1 0.357099 0.0714761 0.252253 55.845 -7.5762e-07 
44 1 0.39276 0.0714598 0.463 55.845 2.70053e-07 
45 1 0.428497 0.107193 0.462937 55.845 -3.01291e-07 
47 1 0.392833 -5.27687e-05 0.463044 55.845 -2.33327e-07 
48 1 0.42846 0.0357777 0.46292 55.845 1.35845e-08 
49 1 0.464292 0.0714272 0.463066 55.845 1.97943e-07 
50 1 0.46423 2.4e-05 0.462974 55.845 -4.71565e-07 
137 1 0.392814 0.0713916 0.379346 55.845 5.46854e-07 
138 1 0.392808 0.107109 0.421109 55.845 -1.07741e-07 
139 1 0.428544 0.107158 0.379484 55.845 2.921e-07 
144 1 0.392833 7.79581e-05 0.37949 55.845 3.67626e-07 
145 1 0.392837 0.0357169 0.421133 55.845 1.64748e-07 
146 1 0.428531 0.035709 0.379464 55.845 8.08662e-07 
147 1 0.428502 0.0714384 0.421248 55.845 -7.71798e-10 
148 1 0.464205 0.0714808 0.379592 55.845 3.82871e-07 
149 1 0.464248 0.107165 0.42128 55.845 -5.39356e-07 
150 1 0.428503 4.84712e-05 0.42113 55.845 -5.38222e-07 
151 1 0.464241 5.25643e-05 0.379486 55.845 1.35682e-07 
152 1 0.464199 0.0357155 0.421268 55.845 -2.44893e-07 
239 1 0.392903 0.0714775 0.294656 55.845 8.28354e-07 
240 1 0.392856 0.107128 0.337313 55.845 -3.85644e-07 
241 1 0.428569 0.107178 0.294755 55.845 4.78481e-07 
246 1 0.392866 5.92772e-05 0.294841 55.845 6.05599e-07 
247 1 0.392899 0.0358018 0.337383 55.845 -2.49389e-07 
248 1 0.428585 0.0357658 0.294733 55.845 8.18256e-07 
249 1 0.428566 0.0714252 0.337404 55.845 -2.38781e-07 
250 1 0.464261 0.0714332 0.294835 55.845 5.91624e-07 
251 1 0.464242 0.10718 0.337385 55.845 -6.55185e-07 
252 1 0.428528 9.35676e-06 0.337389 55.845 -6.8461e-07 
253 1 0.464264 2.71238e-06 0.294958 55.845 5.27913e-07 
254 1 0.464274 0.0357851 0.337432 55.845 -6.59332e-07 
342 1 0.392858 0.107165 0.252178 55.845 -4.82112e-07 
349 1 0.392873 0.0357471 0.25229 55.845 -8.34527e-07 
351 1 0.428601 0.0714624 0.252197 55.845 -5.47061e-07 
353 1 0.464338 0.107125 0.252266 55.845 -4.88468e-07 
354 1 0.428579 4.96065e-05 0.252239 55.845 -4.96398e-07 
356 1 0.464263 0.0357225 0.252367 55.845 -4.93439e-07 
1 1 -3.51953e-05 0.178563 0.462954 55.845 -4.08891e-07 
2 1 0.0356529 0.214363 0.462952 55.845 2.62372e-08 
4 1 0.0356297 0.142838 0.462887 55.845 -5.28091e-07 
5 1 0.0713614 0.178625 0.46291 55.845 -2.028e-07 
6 1 0.10709 0.214305 0.462943 55.845 4.68742e-07 
10 1 0.10709 0.142864 0.463003 55.845 -3.46594e-07 
51 1 -5.21271e-05 0.17856 0.379479 55.845 6.74135e-08 
52 1 -6.2359e-05 0.214293 0.421143 55.845 4.8386e-07 
53 1 0.0356616 0.214325 0.379526 55.845 -2.33896e-07 
54 1 0.0357344 0.250019 0.421053 55.845 -3.69744e-07 
56 1 -9.6089e-05 0.142899 0.421121 55.845 2.53169e-07 
57 1 0.0356933 0.142857 0.379459 55.845 -5.17357e-08 
58 1 0.0356674 0.178592 0.421149 55.845 -6.83235e-08 
59 1 0.0714271 0.1786 0.379335 55.845 3.99552e-08 
60 1 0.0713857 0.214323 0.421134 55.845 3.26606e-07 
61 1 0.107098 0.21431 0.379582 55.845 3.96972e-07 
62 1 0.107188 0.250066 0.421301 55.845 1.49789e-07 
68 1 0.0714795 0.142801 0.421233 55.845 -6.28984e-07 
69 1 0.107107 0.14278 0.379336 55.845 4.74811e-07 
70 1 0.107077 0.178551 0.421095 55.845 -2.62117e-07 
153 1 -9.53482e-06 0.178535 0.294839 55.845 1.95149e-07 
154 1 1.81838e-05 0.214282 0.337397 55.845 3.0339e-07 
155 1 0.0356892 0.214312 0.294918 55.845 4.5656e-07 
156 1 0.035702 0.250044 0.337459 55.845 -1.32863e-07 
158 1 8.03777e-05 0.142876 0.3375 55.845 -2.9763e-07 
159 1 0.0357586 0.142913 0.294819 55.845 1.25331e-07 
160 1 0.0357164 0.178544 0.337403 55.845 -1.52573e-09 
161 1 0.0714453 0.178568 0.294784 55.845 5.12027e-07 
162 1 0.0714276 0.214341 0.337456 55.845 9.65361e-08 
163 1 0.107069 0.214302 0.2948 55.845 7.40523e-07 
164 1 0.107087 0.250014 0.337472 55.845 4.05029e-08 
170 1 0.0714839 0.14277 0.337431 55.845 -6.07318e-07 
171 1 0.107159 0.142862 0.294832 55.845 6.2586e-07 
172 1 0.107121 0.17852 0.337205 55.845 1.73233e-08 
256 1 -3.40909e-06 0.214335 0.252299 55.845 -2.35555e-07 
258 1 0.0357049 0.250066 0.252438 55.845 -5.91218e-07 
260 1 1.10939e-05 0.142866 0.252366 55.845 -2.49697e-07 
262 1 0.0357381 0.178636 0.252278 55.845 -4.88209e-07 
264 1 0.0713568 0.21431 0.252214 55.845 -6.25292e-07 
266 1 0.107095 0.249905 0.252251 55.845 -5.22614e-07 
272 1 0.0714127 0.142875 0.252342 55.845 -3.67491e-07 
274 1 0.107089 0.178599 0.252275 55.845 -6.11101e-07 
11 1 0.142858 0.178595 0.462868 55.845 1.78448e-07 
12 1 0.178641 0.21425 0.463086 55.845 -7.90744e-08 
17 1 0.178573 0.142902 0.46293 55.845 -2.32005e-08 
18 1 0.214276 0.178526 0.463068 55.845 1.9129e-07 
19 1 0.249916 0.214273 0.463044 55.845 9.03094e-08 
24 1 0.249937 0.142808 0.462996 55.845 -2.28742e-07 
71 1 0.142748 0.178518 0.379371 55.845 2.82456e-07 
72 1 0.142901 0.214271 0.421195 55.845 5.77983e-07 
73 1 0.178562 0.214232 0.379363 55.845 -1.94555e-08 
82 1 0.142785 0.142884 0.421161 55.845 -3.62457e-07 
83 1 0.178539 0.142882 0.379437 55.845 3.43419e-07 
84 1 0.178515 0.178606 0.421173 55.845 -1.28341e-07 
85 1 0.214245 0.17859 0.379411 55.845 1.4299e-07 
86 1 0.214285 0.214299 0.421039 55.845 -3.49196e-07 
87 1 0.249982 0.214298 0.379376 55.845 3.00823e-07 
96 1 0.214259 0.142875 0.42098 55.845 2.55748e-08 
97 1 0.250025 0.142911 0.379368 55.845 3.46957e-07 
98 1 0.249977 0.178592 0.421115 55.845 -3.82552e-07 
173 1 0.142837 0.178578 0.294765 55.845 5.84457e-07 
174 1 0.14284 0.214315 0.337388 55.845 2.50293e-07 
175 1 0.178531 0.214325 0.294686 55.845 4.42298e-07 
184 1 0.142852 0.142823 0.337275 55.845 -5.52503e-07 
185 1 0.178553 0.142906 0.294662 55.845 1.05405e-07 
186 1 0.17851 0.178524 0.337322 55.845 4.3918e-09 
187 1 0.214316 0.178585 0.294728 55.845 3.40384e-07 
188 1 0.21422 0.214286 0.337321 55.845 -3.06117e-07 
189 1 0.249936 0.214298 0.294853 55.845 7.23139e-07 
198 1 0.214296 0.142861 0.337443 55.845 -6.24034e-07 
199 1 0.250019 0.142881 0.294667 55.845 2.00314e-07 
200 1 0.25 0.178557 0.337383 55.845 -2.27483e-07 
276 1 0.14283 0.214268 0.252205 55.845 -3.63675e-07 
286 1 0.14281 0.142886 0.252299 55.845 -3.29885e-07 
288 1 0.178527 0.178646 0.252187 55.845 -5.67694e-07 
290 1 0.214285 0.214248 0.252346 55.845 -2.75551e-07 
300 1 0.214248 0.142832 0.252288 55.845 -3.53581e-07 
302 1 0.249951 0.178619 0.252248 55.845 -5.48048e-07 
25 1 0.285567 0.178622 0.463 55.845 4.07102e-07 
26 1 0.321324 0.214282 0.463046 55.845 3.44998e-07 
31 1 0.321416 0.142864 0.463073 55.845 -4.88134e-08 
32 1 0.357096 0.178583 0.463095 55.845 -1.332e-07 
99 1 0.285703 0.178598 0.379492 55.845 5.74094e-07 
100 1 0.285661 0.2143 0.42132 55.845 -3.10769e-07 
101 1 0.321361 0.214276 0.379435 55.845 4.30151e-07 
110 1 0.285646 0.142877 0.421266 55.845 -1.58687e-07 
111 1 0.321436 0.142894 0.379545 55.845 5.45672e-07 
112 1 0.321374 0.178565 0.421171 55.845 -4.46401e-07 
113 1 0.35704 0.178574 0.379525 55.845 2.39344e-07 
114 1 0.357081 0.214311 0.42112 55.845 -1.36144e-07 
126 1 0.357092 0.142844 0.421192 55.845 -4.70711e-07 
201 1 0.285684 0.178565 0.294857 55.845 6.19539e-07 
202 1 0.285694 0.214313 0.337438 55.845 -3.19499e-07 
203 1 0.32133 0.214277 0.294672 55.845 5.53981e-07 
212 1 0.28573 0.14284 0.337446 55.845 -5.03491e-07 
213 1 0.321407 0.142872 0.294816 55.845 3.45654e-07 
214 1 0.321389 0.178531 0.337434 55.845 -1.01614e-07 
215 1 0.357143 0.178555 0.294828 55.845 4.66776e-07 