ITEM: TIMESTEP
8100
ITEM: NUMBER OF ATOMS
5880
ITEM: BOX BOUNDS pp pp ff
-27.9442 27.9442
-27.9442 27.9442
0 34.092
ITEM: ATOMS id type xs ys zs mass q 
259 1 9.88262e-05 0.1072 0.209818 55.845 -1.79391e-09 
267 1 5.37136e-05 0.0356564 0.209759 55.845 -1.93358e-07 
269 1 0.0357621 0.0714858 0.20964 55.845 -7.75345e-08 
271 1 0.0712643 0.10712 0.209745 55.845 -3.03621e-08 
279 1 0.0357603 -1.3199e-06 0.209721 55.845 -1.01948e-07 
281 1 0.0713882 0.0356785 0.209725 55.845 -6.02702e-08 
283 1 0.107064 0.0714644 0.209569 55.845 -7.65221e-08 
293 1 0.107158 -2.67947e-05 0.209772 55.845 -4.51885e-08 
361 1 -7.99785e-05 0.107068 0.12516 55.845 2.86569e-07 
369 1 -0.000108364 0.0357292 0.125205 55.845 3.30441e-07 
370 1 -1.08603e-05 0.0713907 0.168194 55.845 -2.0093e-07 
371 1 0.0355935 0.0714768 0.125008 55.845 3.42312e-07 
372 1 0.0357461 0.107138 0.168043 55.845 -2.82045e-07 
373 1 0.0714023 0.107165 0.125264 55.845 3.46035e-07 
380 1 1.75277e-05 -7.89964e-05 0.168107 55.845 -1.63373e-07 
381 1 0.0356917 -0.000123872 0.125189 55.845 2.27624e-07 
382 1 0.0356643 0.035783 0.168015 55.845 -1.81587e-07 
383 1 0.0714462 0.0357729 0.125219 55.845 2.62978e-07 
384 1 0.0713388 0.0714185 0.168018 55.845 -2.0711e-07 
385 1 0.107185 0.0714544 0.125277 55.845 4.29764e-07 
386 1 0.107093 0.10713 0.167972 55.845 -2.87117e-07 
394 1 0.0713921 2.85915e-06 0.167836 55.845 -1.43466e-07 
395 1 0.107077 -3.85597e-05 0.125173 55.845 2.92017e-07 
396 1 0.107052 0.0356236 0.168065 55.845 -3.31435e-07 
463 1 0 0.107143 0.0416667 55.845 -5.89005e-08 
471 1 0 0.0357143 0.0416667 55.845 -9.17509e-08 
472 1 7.84643e-06 0.0714964 0.0835395 55.845 8.66689e-09 
473 1 0.0357143 0.0714286 0.0416667 55.845 -4.81242e-08 
474 1 0.0356903 0.107267 0.0835049 55.845 3.91718e-08 
475 1 0.0714286 0.107143 0.0416667 55.845 4.75491e-08 
482 1 -7.70189e-05 -6.83118e-05 0.0836915 55.845 7.76754e-09 
483 1 0.0357143 0 0.0416667 55.845 7.05984e-08 
484 1 0.0356337 0.0356768 0.0837908 55.845 6.87167e-08 
485 1 0.0714286 0.0357143 0.0416667 55.845 4.21501e-08 
486 1 0.0713538 0.0714725 0.083394 55.845 -1.27939e-07 
487 1 0.107143 0.0714286 0.0416667 55.845 3.82722e-08 
488 1 0.107128 0.107242 0.0836643 55.845 2.70938e-08 
496 1 0.0713229 -4.40936e-05 0.0834473 55.845 4.19204e-09 
497 1 0.107143 0 0.0416667 55.845 -5.92293e-08 
498 1 0.107132 0.0357285 0.0835665 55.845 2.85371e-08 
567 1 0 0.0714286 0 55.845 -6.68881e-08 
568 1 0.0357143 0.107143 0 55.845 -3.46429e-08 
572 1 0 0 0 55.845 -1.9774e-07 
573 1 0.0357143 0.0357143 0 55.845 -4.70521e-08 
574 1 0.0714286 0.0714286 0 55.845 -9.46285e-08 
575 1 0.107143 0.107143 0 55.845 -9.25662e-08 
579 1 0.0714286 0 0 55.845 -1.47364e-07 
580 1 0.107143 0.0357143 0 55.845 -3.55539e-08 
285 1 0.142854 0.107132 0.209603 55.845 -1.43335e-07 
295 1 0.142775 0.0357589 0.20971 55.845 -1.25502e-08 
297 1 0.178591 0.0715076 0.209685 55.845 -1.32855e-07 
299 1 0.214241 0.107166 0.209565 55.845 -1.59998e-07 
307 1 0.178524 2.26968e-05 0.209885 55.845 8.92032e-09 
309 1 0.214248 0.0356876 0.209819 55.845 -1.93801e-08 
311 1 0.250025 0.071426 0.209695 55.845 -1.98592e-07 
387 1 0.142715 0.107124 0.125351 55.845 2.60803e-07 
397 1 0.142771 0.0356666 0.125469 55.845 2.59619e-07 
398 1 0.14278 0.071364 0.168058 55.845 -1.20901e-07 
399 1 0.178549 0.0713226 0.125311 55.845 3.53925e-07 
400 1 0.178524 0.107077 0.16795 55.845 -1.52748e-07 
401 1 0.214266 0.107195 0.125301 55.845 3.65049e-07 
408 1 0.142691 2.13143e-05 0.168127 55.845 -1.90419e-07 
409 1 0.178477 -3.19493e-05 0.125467 55.845 3.08911e-07 
410 1 0.178553 0.0356756 0.168059 55.845 -2.54703e-07 
411 1 0.214358 0.0356962 0.125322 55.845 3.0871e-07 
412 1 0.214352 0.0713642 0.16816 55.845 -1.23596e-07 
413 1 0.250087 0.0713877 0.125123 55.845 3.25441e-07 
414 1 0.2501 0.107151 0.167976 55.845 -2.18404e-07 
424 1 0.214214 1.4133e-05 0.168132 55.845 -2.49625e-07 
426 1 0.249983 0.0356655 0.168042 55.845 -1.36321e-07 
489 1 0.142857 0.107143 0.0416667 55.845 1.42583e-08 
499 1 0.142857 0.0357143 0.0416667 55.845 5.62619e-08 
500 1 0.142811 0.0714895 0.0837487 55.845 -1.50242e-07 
501 1 0.178571 0.0714286 0.0416667 55.845 1.68201e-07 
502 1 0.178488 0.107093 0.0837221 55.845 2.08267e-08 
503 1 0.214286 0.107143 0.0416667 55.845 3.05428e-09 
510 1 0.142779 -5.90031e-05 0.0836855 55.845 -6.89642e-08 
511 1 0.178571 0 0.0416667 55.845 -5.2149e-09 
512 1 0.178487 0.0356453 0.0835539 55.845 -6.58799e-08 
513 1 0.214286 0.0357143 0.0416667 55.845 5.05948e-08 
514 1 0.214215 0.0714565 0.0837339 55.845 -1.52991e-07 
515 1 0.25 0.0714286 0.0416667 55.845 3.96748e-08 
516 1 0.250049 0.10716 0.0835601 55.845 1.23759e-07 
526 1 0.21432 3.42794e-05 0.0835428 55.845 -5.919e-08 
528 1 0.249955 0.0356662 0.0834577 55.845 -2.24366e-08 
581 1 0.142857 0.0714286 0 55.845 -1.43684e-07 
582 1 0.178571 0.107143 0 55.845 -2.04909e-07 
586 1 0.142857 0 0 55.845 -3.36322e-08 
587 1 0.178571 0.0357143 0 55.845 -1.19891e-07 
588 1 0.214286 0.0714286 0 55.845 -1.59855e-07 
589 1 0.25 0.107143 0 55.845 -1.02478e-07 
594 1 0.214286 0 0 55.845 -3.25929e-09 
595 1 0.25 0.0357143 0 55.845 -2.761e-08 
313 1 0.285716 0.10711 0.209592 55.845 -1.5842e-08 
323 1 0.250024 -1.14043e-06 0.209718 55.845 -1.38659e-07 
325 1 0.285813 0.0356485 0.209674 55.845 -1.23777e-07 
327 1 0.321522 0.0714226 0.20969 55.845 -1.48382e-07 
329 1 0.357216 0.107117 0.209723 55.845 -1.4249e-07 
337 1 0.321456 2.19992e-05 0.209869 55.845 -7.88803e-08 
339 1 0.357069 0.0356707 0.209774 55.845 -1.56387e-07 
415 1 0.285741 0.107058 0.1252 55.845 3.44328e-07 
425 1 0.249979 2.43636e-05 0.125298 55.845 2.829e-07 
427 1 0.285743 0.0356734 0.125389 55.845 2.0678e-07 
428 1 0.285768 0.0713991 0.168026 55.845 -1.87738e-07 
429 1 0.321504 0.0714134 0.125158 55.845 4.4034e-07 
430 1 0.321458 0.107092 0.167914 55.845 -3.40032e-07 
431 1 0.357116 0.107182 0.125202 55.845 2.88882e-07 
439 1 0.321504 -6.71202e-06 0.125092 55.845 3.37042e-07 
440 1 0.321474 0.0356719 0.167999 55.845 -2.06846e-07 
441 1 0.357188 0.0357169 0.125259 55.845 3.06868e-07 
442 1 0.357165 0.0714105 0.168172 55.845 -1.06339e-07 
517 1 0.285714 0.107143 0.0416667 55.845 -6.06424e-08 
527 1 0.25 0 0.0416667 55.845 -5.9408e-08 
529 1 0.285714 0.0357143 0.0416667 55.845 2.0376e-09 
530 1 0.285882 0.0713819 0.0834644 55.845 3.00548e-08 
531 1 0.321429 0.0714286 0.0416667 55.845 5.76341e-08 
532 1 0.321332 0.107193 0.0835108 55.845 -7.74853e-08 
533 1 0.357143 0.107143 0.0416667 55.845 1.6115e-07 
603 1 0.357143 0.0714286 0 55.845 -7.90622e-08 
541 1 0.321429 0 0.0416667 55.845 -1.71309e-08 
542 1 0.321482 0.0357922 0.0836102 55.845 -3.20334e-08 
543 1 0.357143 0.0357143 0.0416667 55.845 9.34816e-08 
544 1 0.357208 0.0714534 0.0836963 55.845 -1.60452e-07 
602 1 0.321429 0.0357143 0 55.845 -3.94901e-08 
596 1 0.285714 0.0714286 0 55.845 -6.83652e-08 
597 1 0.321429 0.107143 0 55.845 -4.20428e-08 
612 1 0.464286 0.0357143 0 55.845 -1.26429e-07 
611 1 0.428571 0 0 55.845 -1.02554e-07 
610 1 0.464286 0.107143 0 55.845 -3.80658e-08 
609 1 0.428571 0.0714286 0 55.845 -6.70077e-08 
608 1 0.392857 0.0357143 0 55.845 -2.03942e-07 
341 1 0.392868 0.0714589 0.209821 55.845 -1.79057e-07 
343 1 0.428556 0.107232 0.209837 55.845 -1.77371e-07 
348 1 0.392874 7.74249e-05 0.209719 55.845 -1.55489e-07 
350 1 0.428676 0.0358037 0.209766 55.845 -8.47111e-08 
352 1 0.464355 0.0715158 0.209648 55.845 -1.04947e-07 
355 1 0.464284 0.000158372 0.209798 55.845 -1.83285e-07 
443 1 0.392894 0.0714429 0.125373 55.845 2.7747e-07 
444 1 0.392847 0.107076 0.168198 55.845 -6.51396e-08 
445 1 0.42865 0.107213 0.125453 55.845 2.12214e-07 
604 1 0.392857 0.107143 0 55.845 -1.78513e-07 
450 1 0.392941 4.74457e-05 0.125262 55.845 3.50706e-07 
451 1 0.392874 0.0358776 0.168098 55.845 -1.6523e-07 
452 1 0.428575 0.035744 0.125382 55.845 4.25685e-07 
453 1 0.428686 0.071437 0.168039 55.845 -1.35927e-07 
454 1 0.464395 0.071545 0.125551 55.845 4.27462e-07 
455 1 0.464385 0.107238 0.168082 55.845 -1.64499e-07 
456 1 0.428555 -3.2975e-05 0.168048 55.845 -1.26988e-07 
457 1 0.464398 7.42245e-05 0.125212 55.845 4.7381e-07 
458 1 0.464325 0.0357414 0.167964 55.845 -2.63182e-07 
545 1 0.392857 0.0714286 0.0416667 55.845 1.24987e-07 
546 1 0.392806 0.107174 0.0836026 55.845 -9.82277e-08 
547 1 0.428571 0.107143 0.0416667 55.845 8.55966e-08 
552 1 0.392857 0 0.0416667 55.845 3.54476e-08 
553 1 0.392914 0.0357228 0.0836413 55.845 -7.19871e-09 
554 1 0.428571 0.0357143 0.0416667 55.845 1.26647e-07 
555 1 0.428581 0.0714011 0.0837412 55.845 -1.58536e-07 
556 1 0.464286 0.0714286 0.0416667 55.845 -6.78405e-08 
557 1 0.464336 0.107075 0.083618 55.845 -7.06546e-08 
558 1 0.428583 -1.85235e-05 0.0835867 55.845 -4.58232e-08 
559 1 0.464286 0 0.0416667 55.845 -1.98097e-08 
560 1 0.46428 0.035748 0.0836675 55.845 -4.9033e-08 
255 1 -1.98305e-05 0.178508 0.209867 55.845 -2.05656e-08 
257 1 0.0357276 0.214301 0.209637 55.845 6.57615e-08 
261 1 0.0357317 0.142792 0.209911 55.845 1.10102e-09 
263 1 0.0714968 0.178427 0.209572 55.845 -5.53744e-08 
265 1 0.107136 0.214257 0.209852 55.845 -7.22477e-08 
273 1 0.107101 0.142771 0.209653 55.845 -1.45222e-07 
357 1 -0.000129488 0.178592 0.125418 55.845 2.77401e-07 
358 1 1.41055e-05 0.214159 0.168084 55.845 -1.57704e-07 
359 1 0.0357195 0.214191 0.125096 55.845 2.29032e-07 
360 1 0.035676 0.250051 0.167951 55.845 -1.56123e-07 
362 1 -6.29824e-05 0.142761 0.168154 55.845 -1.23468e-07 
363 1 0.0356502 0.142841 0.125493 55.845 2.55468e-07 
364 1 0.0356746 0.178554 0.168095 55.845 -1.98957e-07 
365 1 0.0713115 0.178654 0.125293 55.845 3.08947e-07 
366 1 0.0713794 0.214434 0.168163 55.845 -2.38879e-07 
367 1 0.107106 0.214236 0.12532 55.845 2.77599e-07 
368 1 0.107102 0.249996 0.168118 55.845 -1.49849e-07 
374 1 0.0714094 0.142826 0.168075 55.845 -1.72984e-07 
375 1 0.107127 0.142885 0.125325 55.845 2.86937e-07 
376 1 0.107193 0.178489 0.167932 55.845 -2.07631e-07 
459 1 0 0.178571 0.0416667 55.845 6.1286e-08 
460 1 -2.52665e-05 0.214364 0.0838181 55.845 -1.39885e-07 
461 1 0.0357143 0.214286 0.0416667 55.845 -6.26904e-09 
462 1 0.0357183 0.24999 0.0835159 55.845 -1.66594e-09 
464 1 -2.80503e-05 0.14281 0.0835401 55.845 -6.99528e-08 
465 1 0.0357143 0.142857 0.0416667 55.845 -6.05557e-08 
466 1 0.035556 0.178538 0.0834979 55.845 2.13702e-08 
467 1 0.0714286 0.178571 0.0416667 55.845 -7.80403e-09 
468 1 0.0713309 0.214306 0.0835033 55.845 4.53595e-08 
469 1 0.107143 0.214286 0.0416667 55.845 -1.99941e-08 
470 1 0.107174 0.250035 0.0837833 55.845 5.63103e-08 
476 1 0.071398 0.142886 0.0836605 55.845 1.34587e-08 
477 1 0.107143 0.142857 0.0416667 55.845 -5.73782e-08 
478 1 0.107178 0.178539 0.0835653 55.845 7.73687e-08 
561 1 0 0.214286 0 55.845 4.18617e-09 
562 1 0.0357143 0.25 0 55.845 3.83929e-09 
563 1 0 0.142857 0 55.845 2.56224e-08 
564 1 0.0357143 0.178571 0 55.845 5.65724e-09 
565 1 0.0714286 0.214286 0 55.845 -4.25296e-08 
566 1 0.107143 0.25 0 55.845 -8.99115e-08 
569 1 0.0714286 0.142857 0 55.845 -4.6586e-08 
570 1 0.107143 0.178571 0 55.845 -7.01063e-08 
275 1 0.142759 0.178531 0.209797 55.845 -1.85642e-07 
277 1 0.178583 0.214276 0.209695 55.845 -1.19136e-07 
287 1 0.178574 0.142768 0.209808 55.845 -2.48987e-07 
289 1 0.214301 0.178678 0.20997 55.845 -1.98001e-07 
291 1 0.249992 0.2143 0.209823 55.845 -1.39148e-07 
301 1 0.250082 0.142824 0.209608 55.845 -7.70397e-08 
377 1 0.142929 0.17862 0.125313 55.845 3.10948e-07 
378 1 0.142777 0.214292 0.168172 55.845 -1.98583e-07 
379 1 0.17859 0.21437 0.125377 55.845 3.63456e-07 
388 1 0.142923 0.142845 0.167978 55.845 -1.23561e-07 
389 1 0.178637 0.142853 0.125126 55.845 2.9508e-07 
390 1 0.178602 0.178542 0.168063 55.845 -2.34414e-07 
391 1 0.214393 0.178563 0.12523 55.845 4.72699e-07 
392 1 0.214289 0.21428 0.168011 55.845 -2.00635e-07 
393 1 0.249965 0.214361 0.125288 55.845 3.42263e-07 
402 1 0.21428 0.142904 0.168142 55.845 -1.77082e-07 
403 1 0.25 0.142854 0.125238 55.845 3.32145e-07 
404 1 0.250109 0.178508 0.168083 55.845 -2.60503e-07 
479 1 0.142857 0.178571 0.0416667 55.845 -9.06305e-08 
480 1 0.142872 0.21423 0.0834878 55.845 7.60714e-08 
481 1 0.178571 0.214286 0.0416667 55.845 -3.0774e-08 
490 1 0.142736 0.14286 0.0837358 55.845 1.36369e-07 
491 1 0.178571 0.142857 0.0416667 55.845 -3.81406e-08 
492 1 0.178521 0.178661 0.0836002 55.845 3.73076e-08 
493 1 0.214286 0.178571 0.0416667 55.845 -4.18464e-08 
494 1 0.214279 0.214268 0.0836633 55.845 6.13099e-10 
495 1 0.25 0.214286 0.0416667 55.845 -2.49611e-08 
504 1 0.214269 0.142874 0.0835866 55.845 3.17771e-08 
505 1 0.25 0.142857 0.0416667 55.845 -4.54623e-08 
506 1 0.249944 0.178596 0.0836414 55.845 1.15128e-07 
571 1 0.142857 0.214286 0 55.845 -1.4379e-07 
576 1 0.142857 0.142857 0 55.845 -1.46287e-07 
577 1 0.178571 0.178571 0 55.845 -1.98054e-07 
578 1 0.214286 0.214286 0 55.845 -1.6535e-07 
583 1 0.214286 0.142857 0 55.845 -1.67115e-07 
584 1 0.25 0.178571 0 55.845 -1.4322e-07 
303 1 0.285686 0.178603 0.2097 55.845 -1.19615e-07 
305 1 0.321406 0.214396 0.209899 55.845 -1.63779e-07 
315 1 0.321381 0.142816 0.2097 55.845 -5.24838e-08 
317 1 0.357106 0.17851 0.209743 55.845 -1.06847e-07 
405 1 0.285673 0.178555 0.125295 55.845 4.04532e-07 
406 1 0.285663 0.214265 0.168025 55.845 -1.48474e-07 
407 1 0.32145 0.21434 0.125417 55.845 3.16415e-07 
416 1 0.28574 0.14273 0.167823 55.845 -2.66059e-07 
417 1 0.321386 0.142922 0.125391 55.845 4.4812e-07 
418 1 0.321355 0.178629 0.167999 55.845 -2.04421e-07 
419 1 0.357099 0.178575 0.125426 55.845 2.15796e-07 
420 1 0.357116 0.214325 0.167996 55.845 -1.24788e-07 
432 1 0.357103 0.142875 0.168095 55.845 -1.12622e-07 
507 1 0.285714 0.178571 0.0416667 55.845 -2.96059e-08 
508 1 0.285738 0.21423 0.0836169 55.845 8.6357e-08 
509 1 0.321429 0.214286 0.0416667 55.845 1.57313e-08 
518 1 0.285729 0.142925 0.0835519 55.845 7.99832e-08 
519 1 0.321429 0.142857 0.0416667 55.845 9.25686e-08 
520 1 0.321378 0.178641 0.0837356 55.845 -6.64507e-08 
521 1 0.357143 0.178571 0.0416667 55.845 2.00744e-07 
522 1 0.357131 0.214217 0.0835785 55.845 -4.76906e-08 
534 1 0.357239 0.142971 0.0837132 55.845 -2.10001e-07 
585 1 0.285714 0.214286 0 55.845 -6.10958e-08 
590 1 0.285714 0.142857 0 55.845 -6.48709e-08 
591 1 0.321429 0.178571 0 55.845 -5.74031e-08 
592 1 0.357143 0.214286 0 55.845 -8.73841e-08 
598 1 0.357143 0.142857 0 55.845 -1.33714e-07 
319 1 0.39279 0.214372 0.209821 55.845 -9.33454e-08 
321 1 0.428528 0.249982 0.209529 55.845 1.74435e-08 
331 1 0.392871 0.143017 0.209866 55.845 -1.81637e-07 
333 1 0.428581 0.178532 0.209871 55.845 -1.47321e-07 
335 1 0.464251 0.214362 0.209635 55.845 -1.28423e-07 
345 1 0.464299 0.142959 0.209886 55.845 -1.52824e-07 
606 1 0.464286 0.178571 0 55.845 8.96092e-09 
421 1 0.392804 0.214247 0.125394 55.845 2.70213e-07 
422 1 0.392822 0.249972 0.167954 55.845 -2.74904e-07 
423 1 0.42854 0.249968 0.125162 55.845 3.76297e-07 
433 1 0.39291 0.142942 0.125512 55.845 1.86976e-07 
434 1 0.392881 0.178648 0.168066 55.845 -4.67405e-08 
435 1 0.428587 0.178537 0.125393 55.845 1.99943e-07 
436 1 0.428539 0.214318 0.168059 55.845 -2.15714e-07 
437 1 0.464313 0.214288 0.125414 55.845 2.39797e-07 
605 1 0.428571 0.142857 0 55.845 -5.63372e-08 
446 1 0.428656 0.14288 0.168164 55.845 -8.78595e-08 
447 1 0.464264 0.142848 0.125229 55.845 2.79831e-07 
448 1 0.464314 0.178661 0.168068 55.845 -1.63632e-07 
523 1 0.392857 0.214286 0.0416667 55.845 9.20091e-08 
524 1 0.392864 0.249961 0.0834736 55.845 -1.418e-07 
525 1 0.428571 0.25 0.0416667 55.845 2.79553e-08 
535 1 0.392857 0.142857 0.0416667 55.845 2.1263e-07 
536 1 0.392816 0.178664 0.0835393 55.845 -1.90863e-07 
537 1 0.428571 0.178571 0.0416667 55.845 1.10608e-07 
538 1 0.428562 0.214257 0.0837295 55.845 -1.67597e-07 
539 1 0.464286 0.214286 0.0416667 55.845 4.98229e-08 
548 1 0.428631 0.142937 0.0834664 55.845 -2.17848e-07 
549 1 0.464286 0.142857 0.0416667 55.845 1.304e-08 
550 1 0.464287 0.17856 0.0835365 55.845 -1.83495e-07 
593 1 0.392857 0.25 0 55.845 -1.1178e-08 
599 1 0.392857 0.178571 0 55.845 -1.02682e-07 
600 1 0.428571 0.214286 0 55.845 3.94701e-08 
3 1 -2.08255e-05 0.107169 0.461982 55.845 4.58564e-07 
7 1 0.000104947 0.0357096 0.462222 55.845 4.2188e-07 
8 1 0.0356891 0.0713328 0.462044 55.845 4.36988e-07 
9 1 0.0713958 0.107142 0.462212 55.845 4.03097e-07 
13 1 0.035766 9.48205e-05 0.462222 55.845 4.43257e-07 
14 1 0.0714341 0.0357334 0.462142 55.845 4.79976e-07 
15 1 0.107194 0.0713815 0.462129 55.845 4.17821e-07 
20 1 0.10729 2.97217e-05 0.462253 55.845 5.14247e-07 
55 1 -4.09978e-05 0.107081 0.377789 55.845 -1.70581e-07 
63 1 4.12244e-05 0.035631 0.377556 55.845 -2.49513e-07 
64 1 4.50079e-05 0.0713752 0.418944 55.845 -2.87569e-07 
65 1 0.0357649 0.0714311 0.377743 55.845 -1.95853e-07 
66 1 0.0357574 0.107018 0.419104 55.845 -2.81838e-07 
67 1 0.0714673 0.107142 0.377879 55.845 -2.27342e-07 
74 1 -6.07072e-05 6.45716e-05 0.419276 55.845 -9.71772e-08 
75 1 0.0356975 2.97253e-05 0.377882 55.845 -2.90195e-07 
76 1 0.035763 0.0357676 0.418921 55.845 -2.77305e-07 
77 1 0.0714197 0.0356695 0.377646 55.845 -2.38529e-07 
78 1 0.0715883 0.0713804 0.419151 55.845 -2.26571e-07 
79 1 0.107141 0.0714754 0.377814 55.845 -3.6551e-07 
80 1 0.107156 0.107144 0.41914 55.845 -1.20089e-07 
88 1 0.071449 -5.63718e-05 0.419185 55.845 -2.46641e-07 
89 1 0.107153 -1.94407e-05 0.377767 55.845 -2.61187e-07 
90 1 0.107179 0.0355888 0.419 55.845 -1.88926e-07 
157 1 2.53012e-05 0.107201 0.294389 55.845 -7.31145e-08 
165 1 -5.31511e-05 0.0356443 0.294006 55.845 -1.28104e-07 
166 1 -3.34353e-05 0.0714094 0.33641 55.845 1.79236e-07 
167 1 0.0356963 0.0714841 0.294323 55.845 -1.06008e-07 
168 1 0.035636 0.107117 0.336379 55.845 2.20801e-07 
169 1 0.0713859 0.107201 0.294347 55.845 -1.0123e-07 
176 1 -3.54897e-06 3.31902e-06 0.336447 55.845 2.30879e-07 
177 1 0.0358224 -5.4134e-05 0.294175 55.845 -7.08803e-08 
178 1 0.0356444 0.0357824 0.33636 55.845 2.84443e-07 
179 1 0.0714492 0.0357278 0.29427 55.845 -1.37909e-07 
180 1 0.071483 0.0715523 0.336578 55.845 2.17525e-07 
181 1 0.107112 0.0715337 0.294075 55.845 -8.16504e-08 
182 1 0.107155 0.107184 0.336507 55.845 3.0708e-07 
190 1 0.071449 4.30205e-05 0.336595 55.845 2.38376e-07 
191 1 0.107147 -2.87545e-05 0.294296 55.845 -8.99505e-08 
192 1 0.107233 0.0357171 0.336627 55.845 2.78336e-07 
268 1 9.07893e-05 0.0715273 0.251878 55.845 2.63772e-07 
270 1 0.0356999 0.107148 0.251991 55.845 1.83999e-07 
278 1 2.10359e-05 -0.000108768 0.251837 55.845 4.21602e-08 
280 1 0.0357367 0.0357175 0.251861 55.845 1.50802e-07 
282 1 0.0714181 0.0714719 0.251875 55.845 1.8253e-07 
284 1 0.107066 0.107118 0.25176 55.845 9.34422e-08 
292 1 0.0714464 -4.32132e-05 0.251727 55.845 9.14227e-08 
294 1 0.107127 0.03559 0.251797 55.845 8.15458e-08 
16 1 0.142938 0.107093 0.462338 55.845 3.57985e-07 
21 1 0.142944 0.0358316 0.462166 55.845 3.98971e-07 
22 1 0.178593 0.0715587 0.462275 55.845 4.76749e-07 
23 1 0.214297 0.107181 0.46221 55.845 5.03019e-07 
27 1 0.178644 -7.80894e-05 0.46205 55.845 5.16732e-07 
28 1 0.21433 0.0356868 0.462142 55.845 4.38085e-07 
29 1 0.249993 0.071449 0.462115 55.845 5.36136e-07 
81 1 0.14277 0.107129 0.377851 55.845 -2.64491e-07 
91 1 0.142864 0.0358083 0.377849 55.845 -2.79671e-07 
92 1 0.142877 0.0714813 0.419113 55.845 -1.04047e-07 
93 1 0.178591 0.0715051 0.377817 55.845 -2.75832e-07 
94 1 0.178585 0.107191 0.419178 55.845 -1.48951e-07 
95 1 0.214237 0.107097 0.377666 55.845 -2.26749e-07 
102 1 0.142836 -3.1769e-05 0.419159 55.845 -2.11128e-07 
103 1 0.178465 -0.000134747 0.377969 55.845 -2.51142e-07 
104 1 0.178481 0.0356358 0.419359 55.845 -1.22712e-07 
105 1 0.21425 0.035675 0.377868 55.845 -1.81137e-07 
106 1 0.214269 0.0714587 0.419267 55.845 -1.7697e-07 
107 1 0.249907 0.0713498 0.377828 55.845 -2.00766e-07 
108 1 0.249886 0.107034 0.419248 55.845 -2.04822e-07 
118 1 0.214375 -4.94891e-05 0.419114 55.845 -1.82152e-07 
120 1 0.250064 0.0356705 0.41937 55.845 -1.50115e-07 
183 1 0.1428 0.107095 0.29419 55.845 -8.67616e-08 
193 1 0.142815 0.0356838 0.294238 55.845 -7.32637e-08 
194 1 0.142921 0.0714537 0.336346 55.845 2.21797e-07 
195 1 0.17865 0.0714299 0.294267 55.845 -7.32325e-08 
196 1 0.178515 0.10718 0.336496 55.845 2.67541e-07 
197 1 0.214305 0.107181 0.294211 55.845 -1.11647e-07 
204 1 0.142889 1.09948e-05 0.336597 55.845 1.44327e-07 
205 1 0.17857 -3.94126e-05 0.294268 55.845 -9.6365e-08 
206 1 0.178554 0.0356769 0.336584 55.845 2.04586e-07 
207 1 0.214282 0.0356947 0.294208 55.845 -5.98376e-08 
208 1 0.214212 0.0714006 0.336526 55.845 2.27276e-07 
209 1 0.249865 0.0714757 0.294288 55.845 -1.72619e-07 
210 1 0.250017 0.107125 0.33647 55.845 3.56866e-07 
220 1 0.214253 1.62229e-06 0.33657 55.845 1.21251e-07 
222 1 0.249944 0.0357228 0.336558 55.845 2.35846e-07 
296 1 0.142837 0.071458 0.251925 55.845 6.71621e-08 
298 1 0.178594 0.107106 0.251772 55.845 5.08305e-08 
306 1 0.14287 -4.88396e-05 0.251876 55.845 2.01119e-07 
308 1 0.178548 0.0357236 0.251846 55.845 8.26505e-08 
310 1 0.214265 0.0715166 0.251857 55.845 1.71151e-07 
312 1 0.24998 0.107223 0.251748 55.845 9.14374e-08 
322 1 0.214355 -3.50567e-05 0.251931 55.845 2.35415e-07 
324 1 0.250005 0.0358202 0.251918 55.845 2.79522e-07 
30 1 0.285772 0.107095 0.462277 55.845 4.566e-07 
35 1 0.249932 2.51975e-05 0.462148 55.845 4.78042e-07 
36 1 0.285762 0.0357174 0.462068 55.845 5.07723e-07 
37 1 0.32141 0.0713752 0.462145 55.845 4.81353e-07 
38 1 0.357083 0.107128 0.462198 55.845 3.93127e-07 
42 1 0.321445 3.16767e-05 0.46214 55.845 5.33258e-07 
43 1 0.357038 0.0357468 0.46213 55.845 4.58725e-07 
109 1 0.285702 0.107087 0.37792 55.845 -1.73187e-07 
119 1 0.250052 -7.45874e-06 0.377958 55.845 -2.28262e-07 
121 1 0.285609 0.0357565 0.377804 55.845 -1.29237e-07 
122 1 0.285713 0.0712949 0.419015 55.845 -2.53423e-07 
123 1 0.321464 0.0715675 0.377649 55.845 -1.97703e-07 
124 1 0.321395 0.107133 0.419203 55.845 -2.01877e-07 
125 1 0.357175 0.107013 0.377766 55.845 -2.03697e-07 
133 1 0.321518 -2.18295e-05 0.377891 55.845 -1.92743e-07 
134 1 0.321429 0.0357324 0.418984 55.845 -2.32249e-07 
135 1 0.357123 0.035765 0.377754 55.845 -1.95289e-07 
136 1 0.357138 0.071466 0.419077 55.845 -1.84492e-07 
211 1 0.285663 0.107139 0.294089 55.845 -1.49898e-07 
221 1 0.250044 -1.57447e-05 0.294375 55.845 -1.57442e-07 
223 1 0.285703 0.0356876 0.294304 55.845 -1.8601e-07 
224 1 0.285671 0.0714472 0.336627 55.845 2.65251e-07 
225 1 0.321276 0.0713457 0.294151 55.845 -1.47151e-07 
226 1 0.321363 0.107171 0.336549 55.845 2.08339e-07 
227 1 0.357171 0.107033 0.294186 55.845 -9.50629e-08 
235 1 0.321436 5.80137e-05 0.294289 55.845 -9.54908e-08 
236 1 0.321367 0.0357637 0.336631 55.845 3.2078e-07 
237 1 0.357241 0.0357785 0.294413 55.845 -1.03921e-07 
238 1 0.35713 0.0714496 0.336427 55.845 1.80213e-07 
326 1 0.285694 0.0714278 0.251798 55.845 2.66874e-07 
328 1 0.321373 0.107115 0.251721 55.845 1.13608e-07 
338 1 0.321441 0.0357566 0.251983 55.845 2.58291e-07 
340 1 0.357065 0.0713409 0.251765 55.845 2.40577e-07 
44 1 0.392733 0.0715549 0.462071 55.845 4.31602e-07 
45 1 0.428475 0.107225 0.462218 55.845 4.41268e-07 
47 1 0.392759 9.22242e-05 0.462281 55.845 5.06548e-07 
48 1 0.428513 0.0358368 0.462203 55.845 4.62474e-07 
49 1 0.464272 0.0715034 0.462139 55.845 4.04354e-07 
50 1 0.46431 -1.58691e-05 0.462097 55.845 5.11069e-07 
137 1 0.392923 0.0714742 0.377756 55.845 -2.65233e-07 
138 1 0.392775 0.107148 0.419122 55.845 -2.06138e-07 
139 1 0.428564 0.107082 0.377765 55.845 -3.1019e-07 
144 1 0.392868 -9.75148e-06 0.377839 55.845 -9.25439e-08 
145 1 0.392685 0.0357585 0.419444 55.845 -2.78819e-07 
146 1 0.428532 0.0357338 0.378061 55.845 -1.72093e-07 
147 1 0.428574 0.0715161 0.419189 55.845 -1.78392e-07 
148 1 0.464249 0.0714205 0.377936 55.845 -2.00044e-07 
149 1 0.464232 0.107196 0.41926 55.845 -2.09582e-07 
150 1 0.428528 -6.09469e-06 0.419308 55.845 -2.95288e-07 
151 1 0.464285 1.31455e-05 0.377925 55.845 -5.35922e-08 
152 1 0.46421 0.0358121 0.419334 55.845 -2.25699e-07 
239 1 0.392877 0.0714093 0.294299 55.845 -1.33958e-07 
240 1 0.392906 0.107222 0.33643 55.845 7.19916e-08 
241 1 0.428623 0.107128 0.294281 55.845 -1.15752e-07 
246 1 0.392985 -3.05255e-05 0.294188 55.845 -1.15182e-07 
247 1 0.392925 0.0356738 0.336698 55.845 2.84174e-07 
248 1 0.428657 0.0356338 0.294206 55.845 -1.14504e-07 
249 1 0.428622 0.0713059 0.336501 55.845 2.20383e-07 
250 1 0.464379 0.071473 0.294409 55.845 -1.17908e-07 
251 1 0.464209 0.107129 0.336483 55.845 1.08537e-07 
252 1 0.428593 -2.77993e-06 0.336803 55.845 2.56093e-07 
253 1 0.464372 2.18275e-05 0.294282 55.845 -9.40405e-08 
254 1 0.464342 0.0356438 0.336734 55.845 2.16689e-07 
342 1 0.392817 0.107127 0.252007 55.845 1.77606e-07 
349 1 0.392878 0.0357465 0.25187 55.845 2.34822e-07 
351 1 0.428561 0.0714679 0.25203 55.845 1.4683e-07 
353 1 0.464406 0.107191 0.252022 55.845 2.95673e-07 
354 1 0.42864 9.53752e-05 0.251844 55.845 1.53034e-07 
356 1 0.46443 0.0356951 0.252003 55.845 2.42559e-07 
1 1 2.64682e-05 0.178483 0.462073 55.845 6.03184e-07 
2 1 0.0357374 0.214296 0.462053 55.845 5.02664e-07 
4 1 0.0356453 0.142757 0.46204 55.845 5.7763e-07 
5 1 0.0714057 0.178611 0.462032 55.845 5.29791e-07 
6 1 0.107179 0.214306 0.462522 55.845 4.77809e-07 
10 1 0.107 0.142774 0.462219 55.845 4.65512e-07 
51 1 2.0076e-05 0.17848 0.377982 55.845 -2.2547e-07 
52 1 2.08615e-05 0.214385 0.419205 55.845 -2.27575e-07 
53 1 0.0358494 0.214243 0.377752 55.845 -2.04355e-07 
54 1 0.0357064 0.249944 0.419003 55.845 -1.40624e-07 
56 1 -5.49584e-05 0.142801 0.418985 55.845 -3.02393e-07 
57 1 0.0355617 0.142792 0.377723 55.845 -2.22388e-07 
58 1 0.0356088 0.178515 0.419205 55.845 -2.0595e-07 
59 1 0.071413 0.178533 0.377707 55.845 -2.61691e-07 
60 1 0.0715779 0.214299 0.419173 55.845 -1.53054e-07 
61 1 0.107251 0.214154 0.377861 55.845 -2.35874e-07 
62 1 0.10723 0.249955 0.419145 55.845 -1.90031e-07 
68 1 0.0713688 0.142962 0.419059 55.845 -2.48267e-07 
69 1 0.107138 0.142883 0.377695 55.845 -2.4901e-07 
70 1 0.107122 0.178556 0.419152 55.845 -1.58362e-07 
153 1 -2.38417e-05 0.178617 0.294289 55.845 -6.21396e-08 
154 1 -3.56755e-05 0.214409 0.336693 55.845 9.1354e-08 
155 1 0.0356526 0.214265 0.294408 55.845 -1.95893e-08 
156 1 0.0356851 0.249957 0.336511 55.845 1.91025e-07 
158 1 -0.000110431 0.142866 0.336603 55.845 1.90438e-07 
159 1 0.0356475 0.142884 0.294348 55.845 -4.82523e-08 
160 1 0.0356136 0.178537 0.336589 55.845 2.31129e-07 
161 1 0.0714136 0.178506 0.294425 55.845 -1.49761e-07 
162 1 0.0714262 0.214295 0.336649 55.845 2.54311e-07 
163 1 0.107121 0.214274 0.294405 55.845 -5.42718e-08 
164 1 0.107072 0.249967 0.336572 55.845 2.50819e-07 
170 1 0.0714272 0.142867 0.336616 55.845 2.60369e-07 
171 1 0.107114 0.142889 0.294085 55.845 -1.72104e-07 
172 1 0.107111 0.178567 0.336482 55.845 3.80136e-07 
256 1 -2.68719e-05 0.214343 0.251828 55.845 2.22667e-07 
258 1 0.0355821 0.249981 0.251819 55.845 1.26856e-07 
260 1 -1.8454e-05 0.142847 0.251786 55.845 3.04725e-07 
262 1 0.0358318 0.178604 0.252046 55.845 1.86233e-07 
264 1 0.0713857 0.214278 0.25208 55.845 1.62553e-07 
266 1 0.107109 0.250055 0.251891 55.845 1.24538e-07 
272 1 0.0713723 0.142856 0.251894 55.845 2.38404e-07 
274 1 0.10711 0.178517 0.251868 55.845 1.36708e-07 
11 1 0.142819 0.178646 0.462165 55.845 3.98392e-07 
12 1 0.178621 0.214351 0.462164 55.845 3.67356e-07 
17 1 0.178538 0.142826 0.46234 55.845 3.87929e-07 
18 1 0.214179 0.178619 0.462222 55.845 3.36291e-07 
19 1 0.249909 0.214231 0.46211 55.845 4.29667e-07 
24 1 0.249966 0.142815 0.462011 55.845 4.17854e-07 
71 1 0.14274 0.178472 0.377813 55.845 -1.668e-07 
72 1 0.142908 0.214214 0.419252 55.845 -1.94251e-07 
73 1 0.178419 0.214324 0.377804 55.845 -2.43087e-07 
82 1 0.14289 0.142862 0.419152 55.845 -2.61379e-07 
83 1 0.178549 0.142919 0.377752 55.845 -1.01336e-07 
84 1 0.178571 0.178609 0.419052 55.845 -2.01903e-07 
85 1 0.214245 0.178594 0.377712 55.845 -2.05409e-07 
86 1 0.214277 0.214268 0.419001 55.845 -2.21247e-07 
87 1 0.249954 0.214289 0.377776 55.845 -1.80331e-07 
96 1 0.214243 0.142922 0.419197 55.845 -2.72499e-07 
97 1 0.249945 0.142849 0.377736 55.845 -1.8308e-07 
98 1 0.250016 0.178659 0.419136 55.845 -2.52424e-07 
173 1 0.14281 0.178522 0.29403 55.845 -1.53503e-07 
174 1 0.142875 0.214174 0.336559 55.845 2.30023e-07 
175 1 0.178527 0.214322 0.294197 55.845 -2.72176e-08 
184 1 0.142822 0.142824 0.33641 55.845 2.2578e-07 
185 1 0.17856 0.142851 0.294219 55.845 -2.01288e-07 
186 1 0.178491 0.178615 0.336483 55.845 2.82373e-07 
187 1 0.214357 0.178494 0.294175 55.845 -1.62253e-07 
188 1 0.214244 0.214244 0.336559 55.845 3.09998e-07 
189 1 0.250005 0.214336 0.29437 55.845 -2.1081e-07 
198 1 0.214268 0.142875 0.336506 55.845 2.439e-07 
199 1 0.25 0.14284 0.294048 55.845 -1.77049e-07 
200 1 0.249922 0.178556 0.336507 55.845 3.74973e-07 
276 1 0.142877 0.214199 0.251809 55.845 2.08064e-08 
286 1 0.142729 0.142786 0.251895 55.845 1.57892e-07 
288 1 0.178681 0.178513 0.252021 55.845 1.02195e-07 
290 1 0.214288 0.214195 0.251927 55.845 2.03067e-08 
300 1 0.214418 0.142851 0.251747 55.845 1.08283e-07 
302 1 0.250023 0.178573 0.251615 55.845 1.3158e-07 
25 1 0.285783 0.178646 0.462 55.845 4.06187e-07 
26 1 0.321424 0.214298 0.462197 55.845 4.57614e-07 
31 1 0.321409 0.142864 0.46221 55.845 4.49425e-07 
32 1 0.357167 0.178544 0.462108 55.845 5.01827e-07 
99 1 0.285704 0.178498 0.377723 55.845 -2.02731e-07 
100 1 0.285667 0.214273 0.419184 55.845 -3.00529e-07 
101 1 0.321457 0.214228 0.377933 55.845 -1.83104e-07 
110 1 0.285562 0.142854 0.419178 55.845 -1.99611e-07 
111 1 0.321389 0.142871 0.377852 55.845 -2.29358e-07 
112 1 0.321478 0.178589 0.419164 55.845 -1.61138e-07 
113 1 0.357112 0.178495 0.377679 55.845 -2.30224e-07 
114 1 0.357105 0.214258 0.419398 55.845 -2.83936e-07 
126 1 0.357184 0.142706 0.419175 55.845 -2.17716e-07 
201 1 0.285666 0.178463 0.294159 55.845 -1.30692e-07 
202 1 0.285787 0.214252 0.336625 55.845 3.05878e-07 
203 1 0.321529 0.214288 0.294411 55.845 -1.51302e-07 
212 1 0.285659 0.142891 0.336454 55.845 2.24718e-07 
213 1 0.321415 0.142911 0.294289 55.845 -1.62945e-08 
214 1 0.321441 0.178516 0.336514 55.845 2.7193e-07 