ITEM: TIMESTEP
8400
ITEM: NUMBER OF ATOMS
5880
ITEM: BOX BOUNDS pp pp ff
-27.9044 27.9044
-27.9044 27.9044
0 34.092
ITEM: ATOMS id type xs ys zs mass q 
259 1 6.31292e-05 0.107154 0.208502 55.845 -6.63061e-08 
267 1 -4.29101e-06 0.0356379 0.208691 55.845 -3.78556e-07 
269 1 0.0356582 0.0714362 0.208638 55.845 -2.2766e-07 
271 1 0.0713965 0.10714 0.208334 55.845 -2.71907e-07 
279 1 0.0357091 2.7841e-05 0.208472 55.845 -3.42887e-07 
281 1 0.0714234 0.0356768 0.208554 55.845 -3.28947e-07 
283 1 0.107204 0.0714391 0.20846 55.845 -5.19816e-07 
293 1 0.107035 1.56316e-06 0.208435 55.845 -3.61036e-07 
361 1 -1.94171e-05 0.10718 0.124851 55.845 3.05471e-07 
369 1 9.28929e-05 0.0357631 0.124877 55.845 2.07853e-07 
370 1 5.59214e-05 0.0714578 0.166471 55.845 -2.37445e-07 
371 1 0.0357225 0.0715047 0.124847 55.845 5.98754e-08 
372 1 0.0357371 0.107112 0.166364 55.845 -2.68071e-07 
373 1 0.0713185 0.107156 0.125098 55.845 1.37415e-07 
380 1 -2.18383e-05 6.13044e-05 0.166366 55.845 -1.75814e-07 
381 1 0.0357669 3.42982e-05 0.125059 55.845 2.19928e-07 
382 1 0.0357698 0.0357584 0.166574 55.845 -2.31804e-07 
383 1 0.0715134 0.0357106 0.124975 55.845 8.74851e-08 
384 1 0.0714262 0.0714007 0.166395 55.845 -1.59198e-07 
385 1 0.107094 0.071485 0.124968 55.845 9.74109e-08 
386 1 0.10715 0.10718 0.166442 55.845 -3.41334e-08 
394 1 0.0714727 -2.15609e-05 0.166474 55.845 -3.30194e-07 
395 1 0.107064 3.95715e-05 0.125035 55.845 4.72667e-08 
396 1 0.10724 0.0357713 0.166408 55.845 -1.59009e-07 
463 1 0 0.107143 0.0416667 55.845 2.09797e-07 
471 1 0 0.0357143 0.0416667 55.845 -8.49867e-08 
472 1 -3.68587e-05 0.071498 0.0844496 55.845 1.41043e-07 
473 1 0.0357143 0.0714286 0.0416667 55.845 1.77325e-07 
474 1 0.0356409 0.107246 0.0841988 55.845 4.32783e-08 
475 1 0.0714286 0.107143 0.0416667 55.845 2.7418e-07 
482 1 4.32418e-05 -1.39009e-05 0.0845291 55.845 5.85604e-07 
483 1 0.0357143 0 0.0416667 55.845 -2.72344e-07 
484 1 0.0357912 0.03566 0.0845295 55.845 5.76854e-07 
485 1 0.0714286 0.0357143 0.0416667 55.845 -2.11007e-07 
486 1 0.0714109 0.0715767 0.0844643 55.845 2.45169e-07 
487 1 0.107143 0.0714286 0.0416667 55.845 5.33564e-08 
488 1 0.107091 0.10719 0.0844318 55.845 3.92552e-07 
496 1 0.0714235 -7.31048e-05 0.0843999 55.845 6.31585e-07 
497 1 0.107143 0 0.0416667 55.845 -1.88581e-07 
498 1 0.107108 0.0357661 0.084544 55.845 5.39118e-07 
567 1 0 0.0714286 0 55.845 -2.95818e-07 
568 1 0.0357143 0.107143 0 55.845 -3.6467e-07 
572 1 0 0 0 55.845 -3.73324e-07 
573 1 0.0357143 0.0357143 0 55.845 -2.54e-07 
574 1 0.0714286 0.0714286 0 55.845 -2.48589e-07 
575 1 0.107143 0.107143 0 55.845 -3.54348e-07 
579 1 0.0714286 0 0 55.845 -1.17735e-07 
580 1 0.107143 0.0357143 0 55.845 -1.11211e-07 
285 1 0.142856 0.107178 0.20845 55.845 -4.34982e-07 
295 1 0.142893 0.0357015 0.208529 55.845 -3.50435e-07 
297 1 0.178579 0.0714797 0.208411 55.845 -4.56001e-07 
299 1 0.214251 0.107133 0.208354 55.845 -4.34363e-07 
307 1 0.178572 -4.40731e-05 0.208621 55.845 -6.7939e-09 
309 1 0.214291 0.0357019 0.208519 55.845 -2.19802e-07 
311 1 0.250004 0.0715654 0.208474 55.845 -3.88149e-07 
387 1 0.142818 0.107179 0.124746 55.845 -4.74035e-08 
397 1 0.142915 0.0355542 0.125053 55.845 -2.09445e-07 
398 1 0.142894 0.0713459 0.166244 55.845 7.88431e-08 
399 1 0.178643 0.0713831 0.125075 55.845 1.03309e-08 
400 1 0.178459 0.107062 0.16635 55.845 -5.52083e-08 
401 1 0.214407 0.107164 0.124935 55.845 2.59889e-07 
408 1 0.142774 -6.36792e-05 0.166458 55.845 -3.82691e-07 
409 1 0.178518 -4.58227e-05 0.12493 55.845 -7.59202e-08 
410 1 0.178659 0.0356454 0.166229 55.845 -1.91959e-07 
411 1 0.214373 0.0355902 0.124875 55.845 -4.68687e-08 
412 1 0.214352 0.0713591 0.166331 55.845 -1.0443e-07 
413 1 0.250028 0.0715297 0.124929 55.845 2.4439e-07 
414 1 0.250137 0.107254 0.166447 55.845 -2.52413e-07 
424 1 0.214256 -4.69478e-05 0.166504 55.845 -4.20634e-07 
426 1 0.250001 0.0358024 0.166569 55.845 -1.18289e-07 
489 1 0.142857 0.107143 0.0416667 55.845 -2.99537e-09 
499 1 0.142857 0.0357143 0.0416667 55.845 -6.32638e-08 
500 1 0.142857 0.0714161 0.0845323 55.845 5.27084e-07 
501 1 0.178571 0.0714286 0.0416667 55.845 -2.56279e-08 
502 1 0.178585 0.107151 0.0844614 55.845 7.641e-07 
503 1 0.214286 0.107143 0.0416667 55.845 -2.21707e-07 
510 1 0.142828 -8.34665e-05 0.0843505 55.845 2.68534e-07 
511 1 0.178571 0 0.0416667 55.845 2.64725e-07 
512 1 0.178614 0.035674 0.0842543 55.845 3.91913e-07 
513 1 0.214286 0.0357143 0.0416667 55.845 1.05028e-07 
514 1 0.214312 0.0714219 0.0844904 55.845 3.54601e-07 
515 1 0.25 0.0714286 0.0416667 55.845 8.14533e-08 
516 1 0.249931 0.107203 0.0844392 55.845 4.32137e-07 
526 1 0.214309 5.27031e-05 0.0845001 55.845 -9.1235e-08 
528 1 0.250024 0.0357572 0.0842378 55.845 9.28255e-08 
581 1 0.142857 0.0714286 0 55.845 -2.31095e-07 
582 1 0.178571 0.107143 0 55.845 -3.57607e-07 
586 1 0.142857 0 0 55.845 -3.31795e-08 
587 1 0.178571 0.0357143 0 55.845 -1.64713e-07 
588 1 0.214286 0.0714286 0 55.845 -2.64197e-07 
589 1 0.25 0.107143 0 55.845 -3.95664e-07 
594 1 0.214286 0 0 55.845 -1.27521e-07 
595 1 0.25 0.0357143 0 55.845 -2.51336e-07 
313 1 0.28574 0.107103 0.208699 55.845 -4.10555e-07 
323 1 0.250005 1.86708e-05 0.208836 55.845 -3.70723e-08 
325 1 0.285705 0.0357439 0.208464 55.845 -2.85023e-07 
327 1 0.321408 0.0714041 0.208587 55.845 -3.30085e-07 
329 1 0.357085 0.107046 0.20866 55.845 -5.59983e-07 
337 1 0.321387 2.31813e-05 0.208403 55.845 -1.99792e-07 
339 1 0.357148 0.0356056 0.208412 55.845 -4.31249e-07 
415 1 0.285692 0.107132 0.124856 55.845 7.18146e-08 
425 1 0.250044 1.53741e-05 0.12484 55.845 3.08804e-07 
427 1 0.285735 0.0357092 0.124834 55.845 6.89109e-08 
428 1 0.285832 0.071441 0.166448 55.845 -2.02606e-07 
429 1 0.32148 0.0715012 0.124887 55.845 8.70806e-08 
430 1 0.321338 0.107206 0.166423 55.845 -1.92005e-07 
431 1 0.357212 0.107026 0.125077 55.845 -1.77905e-08 
439 1 0.321385 -3.0054e-05 0.124938 55.845 3.72387e-07 
440 1 0.321351 0.0358008 0.166345 55.845 -1.9114e-07 
441 1 0.357139 0.035823 0.124995 55.845 9.66215e-08 
442 1 0.357028 0.0713731 0.166562 55.845 -2.64427e-07 
517 1 0.285714 0.107143 0.0416667 55.845 5.34064e-08 
527 1 0.25 0 0.0416667 55.845 2.77283e-07 
529 1 0.285714 0.0357143 0.0416667 55.845 2.6775e-07 
530 1 0.285686 0.0715407 0.0842735 55.845 1.61923e-07 
531 1 0.321429 0.0714286 0.0416667 55.845 2.12955e-07 
532 1 0.321444 0.107157 0.0843963 55.845 3.68697e-07 
533 1 0.357143 0.107143 0.0416667 55.845 1.74824e-07 
603 1 0.357143 0.0714286 0 55.845 -2.69932e-07 
541 1 0.321429 0 0.0416667 55.845 2.46202e-07 
542 1 0.321473 0.0356982 0.084464 55.845 1.90875e-07 
543 1 0.357143 0.0357143 0.0416667 55.845 3.29066e-07 
544 1 0.357197 0.0714179 0.0843503 55.845 1.46507e-07 
602 1 0.321429 0.0357143 0 55.845 -3.10423e-07 
596 1 0.285714 0.0714286 0 55.845 -3.63731e-07 
597 1 0.321429 0.107143 0 55.845 -3.60167e-07 
612 1 0.464286 0.0357143 0 55.845 -3.15103e-07 
611 1 0.428571 0 0 55.845 -5.75804e-07 
610 1 0.464286 0.107143 0 55.845 -1.29206e-07 
609 1 0.428571 0.0714286 0 55.845 -2.15217e-07 
608 1 0.392857 0.0357143 0 55.845 -4.56054e-07 
341 1 0.392884 0.0714089 0.208564 55.845 -3.91524e-07 
343 1 0.428545 0.107103 0.208558 55.845 -3.43748e-07 
348 1 0.392806 -6.01211e-05 0.208584 55.845 -4.59549e-07 
350 1 0.428466 0.0357336 0.208544 55.845 -6.18545e-07 
352 1 0.464219 0.0713394 0.208506 55.845 -1.89873e-07 
355 1 0.464253 2.96487e-05 0.208307 55.845 -4.45087e-07 
443 1 0.392899 0.0713886 0.124855 55.845 1.0694e-07 
444 1 0.392864 0.107224 0.166339 55.845 -2.48541e-07 
445 1 0.428561 0.107166 0.12495 55.845 1.87033e-07 
604 1 0.392857 0.107143 0 55.845 -1.7283e-07 
450 1 0.392671 -2.80203e-05 0.124938 55.845 2.41069e-07 
451 1 0.392843 0.0357484 0.166461 55.845 -1.74568e-07 
452 1 0.4286 0.0357447 0.124908 55.845 3.70038e-07 
453 1 0.428533 0.0714386 0.166543 55.845 -3.92342e-07 
454 1 0.46429 0.0714813 0.125101 55.845 4.70141e-07 
455 1 0.464315 0.107187 0.166542 55.845 -4.06986e-07 
456 1 0.428561 -1.74604e-05 0.166456 55.845 -2.86645e-07 
457 1 0.464267 1.0287e-05 0.124766 55.845 5.44682e-07 
458 1 0.464153 0.0356603 0.16612 55.845 -4.81551e-07 
545 1 0.392857 0.0714286 0.0416667 55.845 3.27325e-07 
546 1 0.392914 0.107151 0.0844077 55.845 1.58325e-07 
547 1 0.428571 0.107143 0.0416667 55.845 2.00036e-07 
552 1 0.392857 0 0.0416667 55.845 3.9525e-07 
553 1 0.392866 0.0356732 0.0842312 55.845 1.69514e-07 
554 1 0.428571 0.0357143 0.0416667 55.845 2.41838e-07 
555 1 0.428582 0.0713754 0.0843794 55.845 5.72774e-08 
556 1 0.464286 0.0714286 0.0416667 55.845 1.23835e-07 
557 1 0.464321 0.107077 0.0844431 55.845 -1.04865e-07 
558 1 0.428493 -1.01407e-05 0.0844997 55.845 1.47979e-07 
559 1 0.464286 0 0.0416667 55.845 -1.04638e-08 
560 1 0.464343 0.0357464 0.0844899 55.845 1.08333e-07 
255 1 -3.27657e-05 0.178556 0.208758 55.845 6.4477e-08 
257 1 0.0356554 0.214271 0.208725 55.845 -3.69033e-08 
261 1 0.0357428 0.142829 0.208563 55.845 -1.04595e-07 
263 1 0.0713934 0.178598 0.208609 55.845 -2.13424e-07 
265 1 0.107098 0.214254 0.208689 55.845 -2.1366e-07 
273 1 0.107247 0.142853 0.208576 55.845 -4.77803e-07 
357 1 -4.34219e-05 0.17855 0.124851 55.845 4.2676e-07 
358 1 2.45462e-05 0.21415 0.166546 55.845 -6.78986e-07 
359 1 0.0357225 0.214458 0.125021 55.845 8.45083e-08 
360 1 0.0356985 0.24998 0.166328 55.845 -3.47637e-07 
362 1 -1.89398e-07 0.142802 0.166391 55.845 -5.91921e-07 
363 1 0.035644 0.142911 0.124789 55.845 1.3505e-07 
364 1 0.0356606 0.178607 0.166577 55.845 -4.41486e-07 
365 1 0.0713666 0.178583 0.125032 55.845 2.91147e-07 
366 1 0.0714303 0.214385 0.166548 55.845 -4.46371e-07 
367 1 0.107174 0.214245 0.124996 55.845 2.96113e-07 
368 1 0.107206 0.249933 0.166354 55.845 -3.25014e-07 
374 1 0.0714678 0.14291 0.166485 55.845 -2.16737e-07 
375 1 0.107078 0.142918 0.124804 55.845 1.85638e-07 
376 1 0.107109 0.178513 0.166408 55.845 -2.70764e-07 
459 1 0 0.178571 0.0416667 55.845 1.02945e-07 
460 1 9.25918e-05 0.214403 0.0846466 55.845 1.6744e-07 
461 1 0.0357143 0.214286 0.0416667 55.845 1.07055e-07 
462 1 0.0356694 0.250003 0.0843915 55.845 4.89916e-07 
464 1 -2.68969e-05 0.142823 0.0844529 55.845 -2.46951e-07 
465 1 0.0357143 0.142857 0.0416667 55.845 3.99909e-07 
466 1 0.0356972 0.178624 0.0845479 55.845 -9.93826e-08 
467 1 0.0714286 0.178571 0.0416667 55.845 3.87737e-07 
468 1 0.0714156 0.21434 0.0845195 55.845 2.07563e-07 
469 1 0.107143 0.214286 0.0416667 55.845 1.19309e-07 
470 1 0.107162 0.250102 0.0844354 55.845 4.02236e-07 
476 1 0.0714072 0.142892 0.0845035 55.845 -1.42532e-08 
477 1 0.107143 0.142857 0.0416667 55.845 1.91988e-07 
478 1 0.107095 0.178713 0.0845593 55.845 1.17936e-07 
561 1 0 0.214286 0 55.845 2.55913e-07 
562 1 0.0357143 0.25 0 55.845 -3.73913e-08 
563 1 0 0.142857 0 55.845 -1.14913e-07 
564 1 0.0357143 0.178571 0 55.845 -1.16266e-07 
565 1 0.0714286 0.214286 0 55.845 -1.47885e-07 
566 1 0.107143 0.25 0 55.845 -3.31674e-07 
569 1 0.0714286 0.142857 0 55.845 -3.53096e-07 
570 1 0.107143 0.178571 0 55.845 -3.97511e-07 
275 1 0.142731 0.178635 0.208692 55.845 -4.49999e-07 
277 1 0.178584 0.214382 0.208671 55.845 -3.12614e-07 
287 1 0.178536 0.142819 0.208591 55.845 -5.7179e-07 
289 1 0.214382 0.178555 0.208502 55.845 -4.47349e-07 
291 1 0.249952 0.214279 0.208578 55.845 -1.69154e-07 
301 1 0.250049 0.142923 0.208669 55.845 -3.51725e-07 
377 1 0.142913 0.178579 0.124977 55.845 2.7762e-07 
378 1 0.142837 0.214199 0.166475 55.845 -3.93117e-07 
379 1 0.178497 0.21422 0.125044 55.845 5.10389e-07 
388 1 0.142882 0.142889 0.166124 55.845 9.86435e-09 
389 1 0.178661 0.14291 0.124891 55.845 3.00836e-07 
390 1 0.178536 0.178518 0.166565 55.845 -3.45289e-07 
391 1 0.214365 0.178597 0.124984 55.845 6.53674e-07 
392 1 0.214263 0.214263 0.166388 55.845 -5.41556e-07 
393 1 0.249957 0.214274 0.125016 55.845 4.99852e-07 
402 1 0.214286 0.142961 0.166607 55.845 -3.74164e-07 
403 1 0.249926 0.142913 0.124981 55.845 4.71643e-07 
404 1 0.250034 0.17856 0.16647 55.845 -3.84728e-07 
479 1 0.142857 0.178571 0.0416667 55.845 1.92185e-07 
480 1 0.142829 0.214314 0.084406 55.845 2.86703e-07 
481 1 0.178571 0.214286 0.0416667 55.845 9.26247e-08 
490 1 0.142822 0.14285 0.0843667 55.845 6.01578e-07 
491 1 0.178571 0.142857 0.0416667 55.845 -1.89939e-07 
492 1 0.178548 0.178603 0.0844441 55.845 3.25534e-07 
493 1 0.214286 0.178571 0.0416667 55.845 -1.38605e-08 
494 1 0.214222 0.214365 0.0845087 55.845 2.51921e-07 
495 1 0.25 0.214286 0.0416667 55.845 3.00037e-07 
504 1 0.214273 0.142892 0.0843677 55.845 6.10522e-07 
505 1 0.25 0.142857 0.0416667 55.845 -9.8904e-08 
506 1 0.250058 0.178574 0.0844738 55.845 2.71702e-07 
571 1 0.142857 0.214286 0 55.845 -5.51042e-07 
576 1 0.142857 0.142857 0 55.845 -4.91448e-07 
577 1 0.178571 0.178571 0 55.845 -6.01415e-07 
578 1 0.214286 0.214286 0 55.845 -5.57832e-07 
583 1 0.214286 0.142857 0 55.845 -3.55279e-07 
584 1 0.25 0.178571 0 55.845 -5.43969e-07 
303 1 0.285829 0.178515 0.208582 55.845 -4.71928e-07 
305 1 0.321403 0.214367 0.208609 55.845 -4.84434e-07 
315 1 0.321463 0.142861 0.208607 55.845 -5.23314e-07 
317 1 0.357045 0.178578 0.208392 55.845 -5.68179e-07 
405 1 0.285671 0.178586 0.124998 55.845 2.84208e-07 
406 1 0.285639 0.214286 0.166361 55.845 -1.27925e-07 
407 1 0.321393 0.214333 0.124817 55.845 2.10408e-08 
416 1 0.285797 0.142809 0.166228 55.845 -2.60773e-07 
417 1 0.32146 0.142871 0.124767 55.845 2.39421e-08 
418 1 0.32141 0.178679 0.166241 55.845 3.76294e-08 
419 1 0.357155 0.178509 0.124961 55.845 4.08866e-08 
420 1 0.357159 0.214273 0.166401 55.845 6.93941e-08 
432 1 0.357132 0.142881 0.166427 55.845 -9.39393e-08 
507 1 0.285714 0.178571 0.0416667 55.845 3.27507e-07 
508 1 0.285688 0.214341 0.0843655 55.845 2.3423e-07 
509 1 0.321429 0.214286 0.0416667 55.845 4.55498e-07 
518 1 0.285738 0.142888 0.0843656 55.845 3.53637e-07 
519 1 0.321429 0.142857 0.0416667 55.845 2.12484e-07 
520 1 0.321372 0.178673 0.0844655 55.845 2.2133e-07 
521 1 0.357143 0.178571 0.0416667 55.845 2.54819e-07 
522 1 0.357077 0.214273 0.084375 55.845 6.53766e-08 
534 1 0.357189 0.142831 0.0845602 55.845 1.17239e-07 
585 1 0.285714 0.214286 0 55.845 -5.26241e-07 
590 1 0.285714 0.142857 0 55.845 -3.97246e-07 
591 1 0.321429 0.178571 0 55.845 -4.14386e-07 
592 1 0.357143 0.214286 0 55.845 -2.07505e-07 
598 1 0.357143 0.142857 0 55.845 -9.26825e-08 
319 1 0.392878 0.214275 0.208361 55.845 -2.87123e-07 
321 1 0.428655 0.250134 0.208391 55.845 -2.90926e-07 
331 1 0.392822 0.142901 0.208431 55.845 -3.75804e-07 
333 1 0.428578 0.17856 0.208577 55.845 -2.25008e-07 
335 1 0.464384 0.214298 0.208347 55.845 -1.87411e-07 
345 1 0.464318 0.14289 0.20863 55.845 -2.61571e-08 
606 1 0.464286 0.178571 0 55.845 -1.59252e-07 
421 1 0.39297 0.214312 0.124795 55.845 -1.05507e-08 
422 1 0.392865 0.250092 0.166139 55.845 -1.52947e-07 
423 1 0.428516 0.250033 0.124824 55.845 1.92591e-07 
433 1 0.392867 0.142903 0.124926 55.845 4.69842e-08 
434 1 0.392964 0.178627 0.166221 55.845 -1.39126e-07 
435 1 0.428678 0.178548 0.124968 55.845 1.6085e-07 
436 1 0.42862 0.214286 0.166273 55.845 -1.50179e-07 
437 1 0.46421 0.21424 0.124861 55.845 1.39814e-07 
605 1 0.428571 0.142857 0 55.845 1.82373e-08 
446 1 0.428615 0.142817 0.166467 55.845 -3.20672e-07 
447 1 0.464209 0.142781 0.125159 55.845 2.69339e-07 
448 1 0.464309 0.178442 0.16655 55.845 -4.29494e-07 
523 1 0.392857 0.214286 0.0416667 55.845 2.6853e-07 
524 1 0.39289 0.250041 0.0843098 55.845 1.25838e-07 
525 1 0.428571 0.25 0.0416667 55.845 2.32173e-07 
535 1 0.392857 0.142857 0.0416667 55.845 2.20663e-07 
536 1 0.392834 0.178592 0.0844353 55.845 5.45581e-08 
537 1 0.428571 0.178571 0.0416667 55.845 2.90353e-07 
538 1 0.428618 0.214297 0.0843919 55.845 -2.39115e-07 
539 1 0.464286 0.214286 0.0416667 55.845 5.30375e-07 
548 1 0.428616 0.142802 0.0844479 55.845 -1.367e-07 
549 1 0.464286 0.142857 0.0416667 55.845 4.37095e-07 
550 1 0.464259 0.178506 0.0844041 55.845 -3.9978e-07 
593 1 0.392857 0.25 0 55.845 -1.82684e-07 
599 1 0.392857 0.178571 0 55.845 -1.75485e-07 
600 1 0.428571 0.214286 0 55.845 -3.16827e-08 
3 1 7.98096e-05 0.107215 0.461905 55.845 2.31553e-07 
7 1 4.7928e-05 0.0355893 0.461996 55.845 3.95107e-07 
8 1 0.0356523 0.0713942 0.462077 55.845 2.85729e-07 
9 1 0.0713544 0.107079 0.462045 55.845 2.58639e-07 
13 1 0.0357045 0.000121868 0.462331 55.845 3.98079e-07 
14 1 0.0715757 0.0358611 0.462164 55.845 4.25056e-07 
15 1 0.107058 0.0715822 0.462055 55.845 5.30258e-07 
20 1 0.107147 8.87641e-06 0.46225 55.845 3.46928e-07 
55 1 6.00827e-05 0.107089 0.378784 55.845 -8.76105e-07 
63 1 -1.23027e-05 0.0357035 0.378662 55.845 -2.92816e-07 
64 1 8.5646e-05 0.0713853 0.420053 55.845 -4.76324e-08 
65 1 0.0357043 0.0713698 0.378581 55.845 -4.81941e-07 
66 1 0.0358079 0.10704 0.419797 55.845 2.80908e-07 
67 1 0.0714305 0.107199 0.378594 55.845 -6.1639e-07 
74 1 0.000115947 4.37371e-05 0.420035 55.845 -3.62731e-07 
75 1 0.0356775 6.38482e-05 0.378874 55.845 -2.3072e-07 
76 1 0.0357959 0.0357071 0.419902 55.845 -2.70883e-07 
77 1 0.0715066 0.0357769 0.378793 55.845 -2.65309e-07 
78 1 0.0714977 0.0715065 0.42008 55.845 -3.39804e-07 
79 1 0.107278 0.0714222 0.378627 55.845 -3.91039e-07 
80 1 0.107197 0.107043 0.419887 55.845 -8.00175e-08 
88 1 0.0715389 3.55796e-05 0.420162 55.845 -2.83571e-07 
89 1 0.10718 7.81452e-05 0.378638 55.845 -4.91043e-07 
90 1 0.107108 0.0356964 0.420075 55.845 -3.69801e-07 
157 1 -2.22808e-06 0.107201 0.294689 55.845 1.33668e-06 
165 1 0.000100839 0.0357112 0.294688 55.845 1.1045e-06 
166 1 -4.37355e-05 0.0713667 0.336739 55.845 -1.48482e-08 
167 1 0.0357922 0.0714952 0.294636 55.845 1.1246e-06 
168 1 0.0357236 0.107141 0.33678 55.845 -1.21576e-08 
169 1 0.0714701 0.107074 0.294546 55.845 1.13958e-06 
176 1 6.2752e-05 3.08422e-05 0.336747 55.845 6.12916e-08 
177 1 0.0357281 -2.82673e-05 0.294697 55.845 9.34207e-07 
178 1 0.0357685 0.0356678 0.336747 55.845 1.38606e-07 
179 1 0.0715431 0.0357604 0.294523 55.845 8.04571e-07 
180 1 0.0714818 0.0714093 0.336612 55.845 4.36282e-08 
181 1 0.107197 0.0714445 0.294549 55.845 9.85374e-07 
182 1 0.107182 0.107174 0.336639 55.845 1.29423e-07 
190 1 0.0713778 9.30753e-06 0.336759 55.845 1.05478e-07 
191 1 0.107119 -9.16743e-07 0.294534 55.845 9.39207e-07 
192 1 0.107211 0.0357122 0.336608 55.845 6.36097e-08 
268 1 1.2939e-06 0.0714807 0.25186 55.845 -4.14951e-07 
270 1 0.0357014 0.107161 0.25183 55.845 -4.36946e-07 
278 1 -5.48369e-06 -5.43591e-05 0.251713 55.845 -3.20891e-07 
280 1 0.03574 0.0356851 0.252027 55.845 -1.00896e-07 
282 1 0.071511 0.0714041 0.251521 55.845 -1.96718e-07 
284 1 0.107134 0.107175 0.251613 55.845 -3.34093e-07 
292 1 0.0713455 -6.47519e-05 0.251917 55.845 -1.01721e-07 
294 1 0.107157 0.0357402 0.251761 55.845 -1.67146e-08 
16 1 0.142821 0.107138 0.462376 55.845 4.4721e-07 
21 1 0.142899 0.0356725 0.462133 55.845 5.99379e-07 
22 1 0.178622 0.0714318 0.462255 55.845 5.91741e-07 
23 1 0.214308 0.107225 0.462181 55.845 4.01442e-07 
27 1 0.178534 -8.09209e-05 0.461918 55.845 5.208e-07 
28 1 0.214289 0.0358286 0.46195 55.845 6.15079e-07 
29 1 0.249908 0.0714572 0.462096 55.845 4.4809e-07 
81 1 0.142925 0.107083 0.378509 55.845 -2.97836e-07 
91 1 0.142858 0.0357158 0.37864 55.845 -3.14233e-07 
92 1 0.142899 0.0714638 0.419978 55.845 -3.93017e-07 
93 1 0.1785 0.071428 0.378847 55.845 -2.36644e-07 
94 1 0.178433 0.10713 0.420111 55.845 -4.05536e-07 
95 1 0.21422 0.107023 0.378627 55.845 -4.77444e-08 
102 1 0.142853 -8.44779e-06 0.42004 55.845 7.07459e-09 
103 1 0.178573 8.39354e-05 0.378648 55.845 -5.92454e-07 
104 1 0.178581 0.0357009 0.419985 55.845 -3.49464e-07 
105 1 0.21428 0.0357393 0.378724 55.845 -3.88506e-07 
106 1 0.214233 0.0714072 0.420016 55.845 -3.95002e-07 
107 1 0.249939 0.071372 0.378723 55.845 -2.85651e-07 
108 1 0.249988 0.107142 0.420042 55.845 -6.4848e-07 
118 1 0.21428 6.77334e-06 0.419949 55.845 -4.87916e-08 
120 1 0.24994 0.0356883 0.419998 55.845 -2.68687e-07 
183 1 0.142991 0.107114 0.294396 55.845 8.59519e-07 
193 1 0.142826 0.0357806 0.294584 55.845 9.43654e-07 
194 1 0.142909 0.0713427 0.336607 55.845 -1.88541e-08 
195 1 0.178532 0.0714372 0.294386 55.845 9.69618e-07 
196 1 0.178472 0.107097 0.336565 55.845 2.13028e-07 
197 1 0.214277 0.107039 0.294673 55.845 9.44935e-07 
204 1 0.142921 3.00789e-05 0.33674 55.845 -9.41864e-08 
205 1 0.178469 -2.47122e-06 0.294563 55.845 1.16462e-06 
206 1 0.178624 0.0357663 0.336766 55.845 -3.92735e-08 
207 1 0.214196 0.0357168 0.294514 55.845 1.25104e-06 
208 1 0.214204 0.07143 0.336648 55.845 -2.94106e-07 
209 1 0.24995 0.0714055 0.294526 55.845 1.24669e-06 
210 1 0.250074 0.107196 0.336791 55.845 -3.67895e-08 
220 1 0.214176 8.58519e-05 0.336613 55.845 -3.19015e-07 
222 1 0.249918 0.0357704 0.336644 55.845 -3.25785e-07 
296 1 0.142931 0.0713984 0.251525 55.845 -1.11221e-07 
298 1 0.178593 0.107132 0.251878 55.845 -1.75945e-07 
306 1 0.142779 5.61317e-05 0.251833 55.845 -2.15158e-07 
308 1 0.178525 0.0356936 0.251736 55.845 -3.35702e-07 
310 1 0.214269 0.0715363 0.251698 55.845 -2.25751e-07 
312 1 0.250062 0.107128 0.251679 55.845 -4.68732e-07 
322 1 0.214266 3.34057e-05 0.251892 55.845 -4.40374e-07 
324 1 0.249961 0.0357824 0.251655 55.845 -4.08893e-07 
30 1 0.285623 0.107149 0.462129 55.845 4.65411e-07 
35 1 0.249884 -4.1513e-05 0.462111 55.845 2.99293e-07 
36 1 0.285637 0.0357464 0.462181 55.845 3.19287e-07 
37 1 0.321358 0.07145 0.462045 55.845 3.82425e-07 
38 1 0.357073 0.107186 0.462182 55.845 3.21122e-07 
42 1 0.321502 1.74805e-05 0.462119 55.845 1.38239e-07 
43 1 0.357001 0.0357274 0.462055 55.845 1.71995e-07 
109 1 0.285731 0.107153 0.378795 55.845 -8.99551e-08 
119 1 0.250049 -2.54059e-05 0.378796 55.845 -7.26978e-07 
121 1 0.285663 0.035693 0.378848 55.845 -5.64423e-07 
122 1 0.285718 0.0715015 0.420058 55.845 -2.98824e-07 
123 1 0.321478 0.0715021 0.378816 55.845 -3.68282e-07 
124 1 0.321383 0.107201 0.420178 55.845 -4.20615e-07 
125 1 0.35716 0.107303 0.378845 55.845 -1.28021e-07 
133 1 0.321375 7.05783e-05 0.378781 55.845 -5.87767e-07 
134 1 0.321372 0.0357801 0.41988 55.845 -1.17939e-07 
135 1 0.357138 0.0357766 0.378593 55.845 -3.40249e-07 
136 1 0.357165 0.0714918 0.419955 55.845 -2.29277e-07 
211 1 0.285692 0.10715 0.29465 55.845 1.10991e-06 
221 1 0.250009 6.80439e-05 0.294617 55.845 1.28656e-06 
223 1 0.285682 0.035811 0.29465 55.845 1.3045e-06 
224 1 0.285696 0.0713991 0.336766 55.845 -3.04628e-07 
225 1 0.321427 0.0714419 0.294704 55.845 1.09213e-06 
226 1 0.321438 0.107247 0.336765 55.845 -4.53665e-08 
227 1 0.357133 0.107082 0.294679 55.845 1.08043e-06 
235 1 0.321414 4.21293e-05 0.294598 55.845 1.09061e-06 
236 1 0.321488 0.0357703 0.33669 55.845 -1.49013e-07 
237 1 0.357113 0.0357468 0.294533 55.845 1.23842e-06 
238 1 0.357136 0.0714221 0.336689 55.845 -1.21568e-07 
326 1 0.285712 0.0714129 0.251883 55.845 -4.07354e-07 
328 1 0.321394 0.107071 0.251763 55.845 -3.3146e-07 
338 1 0.321414 0.0357612 0.251762 55.845 -4.19938e-07 
340 1 0.357151 0.0714181 0.251738 55.845 -3.3117e-07 
44 1 0.392776 0.0713995 0.462067 55.845 3.28789e-07 
45 1 0.428583 0.107187 0.46214 55.845 3.71159e-07 
47 1 0.392872 -4.0567e-05 0.46193 55.845 2.00831e-07 
48 1 0.428537 0.0356753 0.462043 55.845 1.45057e-07 
49 1 0.464186 0.0714187 0.462179 55.845 4.22028e-07 
50 1 0.46444 2.70888e-05 0.462126 55.845 1.18112e-07 
137 1 0.392885 0.0714866 0.378772 55.845 -2.17677e-07 
138 1 0.392824 0.107141 0.42016 55.845 -3.83542e-07 
139 1 0.428548 0.107162 0.378777 55.845 -3.31305e-07 
144 1 0.392889 3.31607e-05 0.378686 55.845 -3.55329e-07 
145 1 0.392885 0.0356679 0.419903 55.845 -2.32111e-07 
146 1 0.428473 0.035692 0.378613 55.845 -7.7238e-08 
147 1 0.42853 0.0713847 0.420048 55.845 -4.36687e-07 
148 1 0.464291 0.0714427 0.378814 55.845 -2.66652e-08 
149 1 0.464416 0.107266 0.420168 55.845 -4.81383e-07 
150 1 0.428672 -2.56985e-05 0.419969 55.845 -1.89068e-07 
151 1 0.464322 -2.25896e-06 0.378771 55.845 5.2536e-08 
152 1 0.464266 0.0357267 0.419991 55.845 -6.04569e-07 
239 1 0.392829 0.0714973 0.294611 55.845 9.82847e-07 
240 1 0.392868 0.107209 0.336737 55.845 -1.95376e-07 
241 1 0.428606 0.107141 0.294679 55.845 1.28751e-06 
246 1 0.39294 4.2261e-05 0.294587 55.845 1.04709e-06 
247 1 0.392808 0.035839 0.336738 55.845 -1.07026e-07 
248 1 0.428607 0.0357014 0.294578 55.845 1.13377e-06 
249 1 0.428587 0.0713929 0.336699 55.845 -2.43738e-07 
250 1 0.464322 0.071436 0.29465 55.845 1.1988e-06 
251 1 0.464253 0.107079 0.336631 55.845 -5.71275e-07 
252 1 0.428662 2.16433e-05 0.336704 55.845 -1.63755e-07 
253 1 0.464354 -7.52346e-05 0.294469 55.845 1.04253e-06 
254 1 0.464293 0.0357773 0.336596 55.845 -3.09206e-07 
342 1 0.392834 0.107169 0.251838 55.845 -8.91673e-08 
349 1 0.392824 0.0357835 0.251735 55.845 -3.98983e-07 
351 1 0.428585 0.0713518 0.251827 55.845 -2.70256e-07 
353 1 0.464212 0.107201 0.251663 55.845 -4.53223e-07 
354 1 0.428492 -1.35469e-05 0.251749 55.845 -5.12307e-07 
356 1 0.464296 0.0357106 0.25187 55.845 -3.79622e-07 
1 1 3.34391e-05 0.178702 0.462219 55.845 1.22313e-07 
2 1 0.0356918 0.214304 0.462099 55.845 1.54184e-07 
4 1 0.0356434 0.142758 0.462223 55.845 2.58806e-08 
5 1 0.0715729 0.17857 0.462209 55.845 -8.26983e-09 
6 1 0.107224 0.214242 0.462247 55.845 1.75466e-07 
10 1 0.107186 0.142772 0.462363 55.845 2.44102e-07 
51 1 -2.70656e-05 0.178656 0.378791 55.845 -8.80902e-07 
52 1 0.000117348 0.214293 0.419995 55.845 1.72174e-08 
53 1 0.0357029 0.214173 0.378774 55.845 -9.99726e-07 
54 1 0.035626 0.249969 0.420178 55.845 8.66444e-08 
56 1 0.000193228 0.142873 0.420026 55.845 2.60499e-07 
57 1 0.0358179 0.142918 0.378793 55.845 -9.50517e-07 
58 1 0.0358125 0.178526 0.420339 55.845 3.95126e-07 
59 1 0.0714175 0.178498 0.378838 55.845 -1.01642e-06 
60 1 0.07142 0.214345 0.419966 55.845 3.54773e-07 
61 1 0.107109 0.214254 0.378794 55.845 -8.93628e-07 
62 1 0.107113 0.250025 0.420047 55.845 1.17198e-07 
68 1 0.0713988 0.142769 0.420174 55.845 2.36941e-07 
69 1 0.107207 0.142821 0.378917 55.845 -7.9867e-07 
70 1 0.107252 0.178566 0.420078 55.845 3.04297e-07 
153 1 6.48642e-05 0.178595 0.294734 55.845 1.01163e-06 
154 1 1.27163e-05 0.21425 0.336666 55.845 7.61849e-08 
155 1 0.0356757 0.214285 0.294891 55.845 1.05686e-06 
156 1 0.0356947 0.249991 0.336706 55.845 2.12227e-07 
158 1 -4.9533e-05 0.142943 0.33675 55.845 -5.30905e-08 
159 1 0.0358367 0.14283 0.294558 55.845 1.3189e-06 
160 1 0.0356448 0.178627 0.336791 55.845 1.16951e-07 
161 1 0.071369 0.178547 0.294758 55.845 1.12665e-06 
162 1 0.0714049 0.214306 0.336807 55.845 2.96179e-07 
163 1 0.107138 0.214335 0.294586 55.845 1.05289e-06 
164 1 0.107054 0.249903 0.336822 55.845 3.44178e-07 
170 1 0.0714106 0.142915 0.336802 55.845 9.27968e-08 
171 1 0.10714 0.142895 0.294917 55.845 1.13713e-06 
172 1 0.107231 0.178643 0.336701 55.845 3.09704e-07 
256 1 -5.07977e-06 0.21425 0.251723 55.845 3.89649e-08 
258 1 0.0357075 0.24998 0.251792 55.845 -2.28836e-07 
260 1 -3.18265e-05 0.142843 0.251916 55.845 -3.25084e-07 
262 1 0.0356624 0.178646 0.251748 55.845 -3.62357e-07 
264 1 0.0713581 0.21423 0.251815 55.845 -4.32379e-07 
266 1 0.107176 0.250024 0.251839 55.845 -4.94052e-07 
272 1 0.0714699 0.142831 0.251807 55.845 -4.91412e-07 
274 1 0.107068 0.178553 0.251878 55.845 -5.94136e-07 
11 1 0.143029 0.178477 0.462365 55.845 5.20603e-08 
12 1 0.178632 0.214259 0.462015 55.845 -1.45496e-07 
17 1 0.17851 0.142896 0.462249 55.845 7.39863e-09 
18 1 0.214261 0.178447 0.462192 55.845 1.03104e-07 
19 1 0.250004 0.214309 0.462076 55.845 8.10885e-08 
24 1 0.250019 0.142815 0.462018 55.845 2.78348e-07 
71 1 0.142945 0.178553 0.378692 55.845 -5.82828e-07 
72 1 0.142832 0.21429 0.4201 55.845 7.40808e-08 
73 1 0.17848 0.214251 0.378663 55.845 -3.79434e-07 
82 1 0.14282 0.142717 0.420106 55.845 -3.53352e-08 
83 1 0.178719 0.142835 0.378798 55.845 -2.2597e-07 
84 1 0.178637 0.178588 0.420209 55.845 7.7261e-08 
85 1 0.214341 0.178575 0.378714 55.845 -3.5154e-07 
86 1 0.214218 0.21422 0.419843 55.845 1.55957e-07 
87 1 0.250016 0.214276 0.378623 55.845 -2.5696e-07 
96 1 0.214263 0.142773 0.419906 55.845 -2.3766e-07 
97 1 0.250018 0.142908 0.378666 55.845 3.36277e-08 
98 1 0.250018 0.178605 0.419976 55.845 -3.00592e-07 
173 1 0.142847 0.17859 0.294539 55.845 1.04068e-06 
174 1 0.142781 0.214245 0.336688 55.845 2.4647e-07 
175 1 0.178569 0.214344 0.294544 55.845 1.17524e-06 
184 1 0.142951 0.142813 0.336765 55.845 1.9511e-07 
185 1 0.178566 0.14273 0.294726 55.845 9.07765e-07 
186 1 0.178595 0.178524 0.33645 55.845 2.89813e-07 
187 1 0.214371 0.178625 0.294635 55.845 1.15675e-06 
188 1 0.214216 0.214228 0.336744 55.845 1.83938e-08 
189 1 0.250061 0.214259 0.294693 55.845 1.2689e-06 
198 1 0.214314 0.142744 0.336644 55.845 -1.7974e-08 
199 1 0.249895 0.14284 0.29454 55.845 1.08675e-06 
200 1 0.250118 0.178543 0.336709 55.845 2.03355e-07 
276 1 0.142819 0.214343 0.251907 55.845 -6.69137e-07 
286 1 0.142973 0.142923 0.251835 55.845 -3.58562e-07 
288 1 0.178651 0.178561 0.251759 55.845 -5.63108e-07 
290 1 0.214294 0.214235 0.251746 55.845 -7.00812e-07 
300 1 0.214301 0.1428 0.251749 55.845 -2.53616e-07 
302 1 0.250071 0.178559 0.251499 55.845 -8.0663e-07 
25 1 0.285705 0.178647 0.462124 55.845 2.91666e-07 
26 1 0.321565 0.21429 0.462273 55.845 1.78358e-07 
31 1 0.321362 0.14294 0.462108 55.845 4.05544e-07 
32 1 0.35708 0.178606 0.462201 55.845 3.66741e-07 
99 1 0.285856 0.178713 0.378553 55.845 -3.28526e-07 
100 1 0.285836 0.214283 0.420038 55.845 -8.48139e-10 
101 1 0.32145 0.214234 0.378623 55.845 -4.02162e-07 
110 1 0.285727 0.142926 0.419865 55.845 -4.23082e-07 
111 1 0.321357 0.142836 0.378682 55.845 -9.02682e-08 
112 1 0.321555 0.17852 0.419927 55.845 -2.06221e-07 
113 1 0.35722 0.178648 0.378556 55.845 -4.03546e-07 
114 1 0.35712 0.214248 0.420102 55.845 -2.13641e-07 
126 1 0.357048 0.142953 0.420029 55.845 -3.5105e-07 
201 1 0.285781 0.178545 0.294637 55.845 1.28826e-06 
202 1 0.285725 0.214296 0.336747 55.845 -1.53892e-07 
203 1 0.32149 0.214412 0.294571 55.845 1.17651e-06 
212 1 0.285786 0.14284 0.336655 55.845 -1.53345e-07 
213 1 0.321564 0.142888 0.294398 55.845 9.80799e-07 
214 1 0.321397 0.17865 0.336516 55.845 6.42296e-09 
215 1 0.357204 0.17852 0.294335 55.845 1.06342e-06 