ITEM: TIMESTEP
7100
ITEM: NUMBER OF ATOMS
5880
ITEM: BOX BOUNDS pp pp ff
-28.0386 28.0386
-28.0387 28.0387
0 34.092
ITEM: ATOMS id type xs ys zs mass q 
259 1 1.38245e-05 0.107121 0.20785 55.845 -2.33629e-07 
267 1 -1.86757e-05 0.0358545 0.207927 55.845 -3.26138e-07 
269 1 0.0357038 0.0714363 0.207805 55.845 -2.34186e-07 
271 1 0.0714432 0.107114 0.207745 55.845 -1.20613e-07 
279 1 0.0357914 0.000104904 0.208011 55.845 -4.07461e-07 
281 1 0.0714372 0.0357353 0.207972 55.845 -2.66154e-07 
283 1 0.107182 0.071419 0.207693 55.845 -1.96361e-07 
293 1 0.107177 -3.89053e-05 0.207714 55.845 -4.00208e-07 
361 1 -3.46742e-05 0.10712 0.123965 55.845 2.57386e-07 
369 1 -2.11355e-05 0.0357146 0.124067 55.845 2.71791e-07 
370 1 -1.84926e-05 0.0714149 0.165689 55.845 1.49179e-07 
371 1 0.0357131 0.0714071 0.123792 55.845 9.15127e-08 
372 1 0.0356586 0.107196 0.165587 55.845 1.98353e-07 
373 1 0.071409 0.107155 0.123919 55.845 -1.34459e-07 
380 1 -1.40753e-05 4.20651e-05 0.165841 55.845 2.25986e-07 
381 1 0.0356389 -3.97486e-05 0.123948 55.845 5.71352e-08 
382 1 0.0356848 0.0357852 0.165755 55.845 2.37972e-07 
383 1 0.0713354 0.0356816 0.123986 55.845 -3.63652e-08 
384 1 0.0714308 0.0713994 0.165573 55.845 2.4618e-07 
385 1 0.107166 0.0714462 0.123686 55.845 -1.48167e-07 
386 1 0.107154 0.107082 0.165606 55.845 2.99004e-07 
394 1 0.0713819 -4.33855e-05 0.165653 55.845 2.01668e-07 
395 1 0.107097 -1.50345e-06 0.123714 55.845 1.18887e-07 
396 1 0.107082 0.0357147 0.165614 55.845 2.63189e-07 
463 1 0 0.107143 0.0416667 55.845 -2.71368e-08 
471 1 0 0.0357143 0.0416667 55.845 3.77937e-08 
472 1 -7.72096e-05 0.0713252 0.0831976 55.845 -2.47535e-08 
473 1 0.0357143 0.0714286 0.0416667 55.845 -1.20743e-07 
474 1 0.0356124 0.107131 0.0831671 55.845 -2.6178e-08 
475 1 0.0714286 0.107143 0.0416667 55.845 -4.22957e-07 
482 1 7.38733e-06 -6.32269e-05 0.0831598 55.845 -3.44567e-07 
483 1 0.0357143 0 0.0416667 55.845 -1.16155e-07 
484 1 0.0356444 0.0356834 0.0831675 55.845 -1.13129e-07 
485 1 0.0714286 0.0357143 0.0416667 55.845 -2.43953e-07 
486 1 0.0713612 0.0714488 0.0831401 55.845 3.71001e-08 
487 1 0.107143 0.0714286 0.0416667 55.845 -4.61142e-07 
488 1 0.107191 0.107111 0.0830617 55.845 7.25568e-08 
496 1 0.071386 -2.50301e-05 0.0831858 55.845 -9.95518e-08 
497 1 0.107143 0 0.0416667 55.845 -1.03562e-07 
498 1 0.10713 0.0356608 0.0832153 55.845 -1.01841e-07 
567 1 0 0.0714286 0 55.845 2.88495e-07 
568 1 0.0357143 0.107143 0 55.845 1.73135e-07 
572 1 0 0 0 55.845 1.78864e-08 
573 1 0.0357143 0.0357143 0 55.845 1.85507e-07 
574 1 0.0714286 0.0714286 0 55.845 1.29847e-07 
575 1 0.107143 0.107143 0 55.845 1.30729e-07 
579 1 0.0714286 0 0 55.845 1.6562e-07 
580 1 0.107143 0.0357143 0 55.845 1.1856e-07 
285 1 0.142868 0.107179 0.207897 55.845 -2.1105e-07 
295 1 0.142821 0.0357074 0.207709 55.845 -2.56779e-07 
297 1 0.17865 0.0712981 0.207897 55.845 -3.57465e-07 
299 1 0.214383 0.107125 0.207832 55.845 -3.72413e-07 
307 1 0.17864 6.38969e-05 0.207875 55.845 -3.2769e-07 
309 1 0.214375 0.0356517 0.207826 55.845 -2.98064e-07 
311 1 0.250059 0.0714302 0.207768 55.845 -4.14108e-07 
387 1 0.142801 0.107195 0.123863 55.845 -6.32354e-08 
397 1 0.142752 0.0357651 0.123836 55.845 -7.25872e-08 
398 1 0.142883 0.0713992 0.16563 55.845 3.6231e-07 
399 1 0.178614 0.071443 0.123734 55.845 6.92621e-08 
400 1 0.178576 0.107113 0.165581 55.845 3.03536e-07 
401 1 0.214364 0.107196 0.123879 55.845 1.49333e-07 
408 1 0.142921 0.000114766 0.165474 55.845 2.87669e-07 
409 1 0.178603 0.000100123 0.123906 55.845 1.20456e-07 
410 1 0.178526 0.035748 0.165697 55.845 3.23495e-07 
411 1 0.214361 0.0357629 0.123804 55.845 1.31434e-07 
412 1 0.214298 0.0715288 0.16576 55.845 3.38796e-07 
413 1 0.250068 0.0713921 0.124029 55.845 2.09261e-07 
414 1 0.249996 0.107262 0.165789 55.845 2.85126e-07 
424 1 0.214299 9.1167e-05 0.165657 55.845 2.47985e-07 
426 1 0.250113 0.0357019 0.165698 55.845 2.08749e-07 
489 1 0.142857 0.107143 0.0416667 55.845 -2.4687e-07 
499 1 0.142857 0.0357143 0.0416667 55.845 -2.48064e-07 
500 1 0.142875 0.0714519 0.0830757 55.845 -2.57414e-08 
501 1 0.178571 0.0714286 0.0416667 55.845 -1.8928e-07 
502 1 0.178665 0.107159 0.0831356 55.845 3.47252e-09 
503 1 0.214286 0.107143 0.0416667 55.845 2.02938e-08 
510 1 0.142875 1.17106e-05 0.0832556 55.845 -1.23409e-07 
511 1 0.178571 0 0.0416667 55.845 -1.37273e-07 
512 1 0.178604 0.0357432 0.0831204 55.845 -1.09003e-07 
513 1 0.214286 0.0357143 0.0416667 55.845 -4.85483e-08 
514 1 0.214311 0.0714786 0.0830791 55.845 -1.05838e-07 
515 1 0.25 0.0714286 0.0416667 55.845 -1.29696e-08 
516 1 0.249985 0.107092 0.0830786 55.845 -1.85517e-07 
526 1 0.214259 -1.36495e-05 0.0832669 55.845 -2.92771e-07 
528 1 0.249901 0.035701 0.0831542 55.845 -1.00132e-07 
581 1 0.142857 0.0714286 0 55.845 8.63823e-08 
582 1 0.178571 0.107143 0 55.845 1.94627e-07 
586 1 0.142857 0 0 55.845 1.48898e-07 
587 1 0.178571 0.0357143 0 55.845 1.05562e-07 
588 1 0.214286 0.0714286 0 55.845 1.96591e-07 
589 1 0.25 0.107143 0 55.845 1.0977e-07 
594 1 0.214286 0 0 55.845 4.51901e-08 
595 1 0.25 0.0357143 0 55.845 1.54504e-07 
313 1 0.285796 0.107119 0.207945 55.845 -3.58083e-07 
323 1 0.250105 -1.43805e-05 0.207897 55.845 -1.73317e-07 
325 1 0.285785 0.0357418 0.207944 55.845 -2.33497e-07 
327 1 0.32151 0.0713914 0.208042 55.845 -4.07908e-07 
329 1 0.357104 0.107186 0.207864 55.845 -3.64489e-07 
337 1 0.321381 1.36719e-05 0.207716 55.845 -3.60284e-07 
339 1 0.357185 0.0356822 0.20789 55.845 -2.42128e-07 
415 1 0.285647 0.107136 0.12396 55.845 -2.35495e-08 
425 1 0.250069 2.30025e-05 0.123932 55.845 2.41644e-07 
427 1 0.285709 0.035719 0.123877 55.845 8.01026e-08 
428 1 0.285817 0.0714341 0.165727 55.845 3.62551e-07 
429 1 0.321391 0.0714494 0.123965 55.845 -9.92295e-08 
430 1 0.321479 0.107128 0.165757 55.845 4.60199e-07 
431 1 0.357151 0.10712 0.123888 55.845 -2.16831e-07 
439 1 0.32146 -5.24179e-05 0.124094 55.845 1.75102e-08 
440 1 0.3215 0.0356917 0.165831 55.845 4.16352e-07 
441 1 0.357119 0.0357679 0.123987 55.845 -2.05114e-07 
442 1 0.35724 0.0714435 0.165887 55.845 4.8332e-07 
517 1 0.285714 0.107143 0.0416667 55.845 -1.67411e-07 
527 1 0.25 0 0.0416667 55.845 -8.28942e-08 
529 1 0.285714 0.0357143 0.0416667 55.845 -1.05609e-07 
530 1 0.28561 0.0713691 0.083157 55.845 1.72194e-08 
531 1 0.321429 0.0714286 0.0416667 55.845 -3.08824e-07 
532 1 0.321435 0.107047 0.083119 55.845 1.25835e-07 
533 1 0.357143 0.107143 0.0416667 55.845 -3.08726e-07 
603 1 0.357143 0.0714286 0 55.845 1.85443e-07 
541 1 0.321429 0 0.0416667 55.845 -1.59909e-07 
542 1 0.321388 0.0356624 0.0831575 55.845 1.64034e-07 
543 1 0.357143 0.0357143 0.0416667 55.845 -3.36768e-07 
544 1 0.357189 0.0713082 0.0832039 55.845 1.46313e-07 
602 1 0.321429 0.0357143 0 55.845 1.94754e-07 
596 1 0.285714 0.0714286 0 55.845 2.38114e-07 
597 1 0.321429 0.107143 0 55.845 1.66439e-07 
612 1 0.464286 0.0357143 0 55.845 9.19945e-08 
611 1 0.428571 0 0 55.845 1.63981e-07 
610 1 0.464286 0.107143 0 55.845 4.62653e-08 
609 1 0.428571 0.0714286 0 55.845 9.5684e-08 
608 1 0.392857 0.0357143 0 55.845 8.97538e-08 
341 1 0.392902 0.0713871 0.207891 55.845 -2.52216e-07 
343 1 0.428507 0.107184 0.207875 55.845 -3.03981e-07 
348 1 0.392913 6.19908e-05 0.207794 55.845 -4.25743e-07 
350 1 0.428729 0.035727 0.20777 55.845 -2.51804e-07 
352 1 0.464238 0.0714358 0.207791 55.845 -4.59509e-07 
355 1 0.464308 5.01938e-05 0.207721 55.845 -4.90862e-07 
443 1 0.392936 0.0714148 0.123802 55.845 -5.94867e-08 
444 1 0.39279 0.107164 0.165701 55.845 3.55475e-07 
445 1 0.428568 0.107151 0.123916 55.845 7.28328e-08 
604 1 0.392857 0.107143 0 55.845 1.692e-07 
450 1 0.392861 0.000113979 0.123867 55.845 2.26443e-08 
451 1 0.392958 0.0356814 0.165507 55.845 4.07219e-07 
452 1 0.428618 0.0358383 0.123802 55.845 3.06925e-09 
453 1 0.428609 0.0715672 0.165673 55.845 3.9855e-07 
454 1 0.464265 0.0714647 0.123898 55.845 2.57854e-07 
455 1 0.464269 0.107169 0.165773 55.845 3.4956e-07 
456 1 0.428627 9.62858e-05 0.165592 55.845 4.81715e-07 
457 1 0.464277 4.7975e-05 0.123848 55.845 1.52314e-07 
458 1 0.464314 0.0358243 0.16568 55.845 4.55577e-07 
545 1 0.392857 0.0714286 0.0416667 55.845 -3.75666e-07 
546 1 0.392819 0.107091 0.0830299 55.845 5.02592e-08 
547 1 0.428571 0.107143 0.0416667 55.845 -1.01849e-07 
552 1 0.392857 0 0.0416667 55.845 -1.40407e-07 
553 1 0.392826 0.0356999 0.0831059 55.845 4.35274e-08 
554 1 0.428571 0.0357143 0.0416667 55.845 -1.31083e-07 
555 1 0.428585 0.0714144 0.0831844 55.845 -2.15892e-07 
556 1 0.464286 0.0714286 0.0416667 55.845 7.3527e-08 
557 1 0.464278 0.10722 0.0831497 55.845 -3.07853e-07 
558 1 0.428597 7.14026e-05 0.0830152 55.845 -1.20681e-07 
559 1 0.464286 0 0.0416667 55.845 1.00413e-08 
560 1 0.464279 0.0357545 0.0830963 55.845 -1.739e-07 
255 1 1.7128e-05 0.178538 0.20781 55.845 -1.69333e-07 
257 1 0.0357424 0.21422 0.208039 55.845 -1.44874e-07 
261 1 0.0356761 0.142797 0.207874 55.845 -1.40843e-07 
263 1 0.0714362 0.178595 0.207985 55.845 -1.81428e-07 
265 1 0.1071 0.2143 0.207976 55.845 -2.21065e-07 
273 1 0.107211 0.142903 0.207887 55.845 -2.39836e-07 
357 1 8.7094e-05 0.178622 0.123751 55.845 1.78336e-07 
358 1 6.51654e-05 0.21433 0.165616 55.845 1.0976e-07 
359 1 0.035706 0.214277 0.123799 55.845 1.81699e-07 
360 1 0.035719 0.249934 0.165821 55.845 7.91658e-08 
362 1 -5.50099e-06 0.142793 0.165468 55.845 1.58431e-07 
363 1 0.0358244 0.142862 0.123892 55.845 1.60797e-08 
364 1 0.0357051 0.178573 0.165676 55.845 1.31418e-07 
365 1 0.0714164 0.178489 0.12384 55.845 4.55346e-08 
366 1 0.0714617 0.214274 0.165681 55.845 1.47334e-07 
367 1 0.107127 0.214153 0.124043 55.845 9.24902e-08 
368 1 0.107167 0.250025 0.165654 55.845 1.4892e-07 
374 1 0.0714379 0.142898 0.165705 55.845 2.24435e-07 
375 1 0.107177 0.142721 0.123826 55.845 -2.0693e-08 
376 1 0.10713 0.178563 0.165686 55.845 2.05222e-07 
459 1 0 0.178571 0.0416667 55.845 -2.01985e-07 
460 1 -1.58025e-05 0.214317 0.0832203 55.845 -3.649e-07 
461 1 0.0357143 0.214286 0.0416667 55.845 -6.55088e-08 
462 1 0.0357001 0.250032 0.083292 55.845 -5.81543e-08 
464 1 -4.00453e-06 0.142871 0.083192 55.845 -2.93761e-07 
465 1 0.0357143 0.142857 0.0416667 55.845 -2.72562e-07 
466 1 0.0358071 0.178497 0.0830802 55.845 -2.1664e-07 
467 1 0.0714286 0.178571 0.0416667 55.845 -2.17104e-07 
468 1 0.0714764 0.214294 0.0831297 55.845 -1.77162e-09 
469 1 0.107143 0.214286 0.0416667 55.845 -1.49372e-07 
470 1 0.107155 0.25003 0.0830848 55.845 -1.15066e-07 
476 1 0.0714913 0.142795 0.083111 55.845 3.26002e-08 
477 1 0.107143 0.142857 0.0416667 55.845 -2.5637e-07 
478 1 0.107137 0.17856 0.0832382 55.845 1.2417e-07 
561 1 0 0.214286 0 55.845 6.93974e-08 
562 1 0.0357143 0.25 0 55.845 2.40297e-07 
563 1 0 0.142857 0 55.845 6.57844e-08 
564 1 0.0357143 0.178571 0 55.845 5.91133e-08 
565 1 0.0714286 0.214286 0 55.845 2.71174e-07 
566 1 0.107143 0.25 0 55.845 1.19847e-07 
569 1 0.0714286 0.142857 0 55.845 1.65636e-07 
570 1 0.107143 0.178571 0 55.845 2.97212e-07 
275 1 0.14287 0.178714 0.207997 55.845 -2.13522e-07 
277 1 0.178696 0.214375 0.207995 55.845 -1.68098e-07 
287 1 0.178651 0.142827 0.20798 55.845 -3.13739e-07 
289 1 0.21434 0.178637 0.207946 55.845 -2.41787e-07 
291 1 0.250076 0.21427 0.207863 55.845 -3.04402e-07 
301 1 0.250055 0.142836 0.207958 55.845 -3.83119e-07 
377 1 0.142849 0.178605 0.124131 55.845 1.44432e-07 
378 1 0.142897 0.214343 0.165844 55.845 1.67818e-07 
379 1 0.178581 0.21428 0.124052 55.845 2.91984e-07 
388 1 0.142887 0.142974 0.165756 55.845 2.74821e-07 
389 1 0.17867 0.142833 0.123976 55.845 2.44366e-07 
390 1 0.178578 0.178587 0.165937 55.845 9.51133e-08 
391 1 0.214367 0.178645 0.124111 55.845 3.00202e-07 
392 1 0.214352 0.214381 0.165701 55.845 1.65363e-07 
393 1 0.249989 0.214283 0.123906 55.845 3.66109e-07 
402 1 0.214392 0.142895 0.165826 55.845 2.54145e-07 
403 1 0.250064 0.142907 0.123751 55.845 1.88453e-07 
404 1 0.249955 0.17859 0.165702 55.845 1.77035e-07 
479 1 0.142857 0.178571 0.0416667 55.845 -3.7216e-08 
480 1 0.142887 0.214243 0.083265 55.845 -1.68047e-07 
481 1 0.178571 0.214286 0.0416667 55.845 -8.0357e-08 
490 1 0.142954 0.142878 0.0832458 55.845 9.5539e-08 
491 1 0.178571 0.142857 0.0416667 55.845 -2.71824e-08 
492 1 0.178661 0.178473 0.0833707 55.845 -1.96425e-07 
493 1 0.214286 0.178571 0.0416667 55.845 3.92633e-08 
494 1 0.214323 0.21428 0.0831278 55.845 -4.28105e-07 
495 1 0.25 0.214286 0.0416667 55.845 1.01876e-07 
504 1 0.214287 0.142966 0.0831143 55.845 -3.35232e-07 
505 1 0.25 0.142857 0.0416667 55.845 -7.73301e-08 
506 1 0.250014 0.178638 0.0831713 55.845 -4.63013e-07 
571 1 0.142857 0.214286 0 55.845 1.3603e-07 
576 1 0.142857 0.142857 0 55.845 2.74265e-07 
577 1 0.178571 0.178571 0 55.845 1.71145e-07 
578 1 0.214286 0.214286 0 55.845 5.16414e-08 
583 1 0.214286 0.142857 0 55.845 8.63843e-08 
584 1 0.25 0.178571 0 55.845 -1.91478e-09 
303 1 0.285752 0.178605 0.207985 55.845 -3.0158e-07 
305 1 0.321422 0.214347 0.207963 55.845 -3.75081e-07 
315 1 0.321516 0.142876 0.207853 55.845 -4.98219e-07 
317 1 0.357161 0.178509 0.208176 55.845 -4.4289e-07 
405 1 0.285736 0.178622 0.124001 55.845 1.54259e-07 
406 1 0.285659 0.214291 0.165923 55.845 2.07795e-07 
407 1 0.321372 0.214295 0.123998 55.845 1.27096e-07 
416 1 0.285647 0.142959 0.165727 55.845 3.40548e-07 
417 1 0.321375 0.142755 0.123868 55.845 -7.5481e-08 
418 1 0.321399 0.178572 0.165818 55.845 3.64258e-07 
419 1 0.357071 0.178588 0.123892 55.845 -2.92887e-08 
420 1 0.357186 0.214248 0.165929 55.845 3.72911e-07 
432 1 0.35712 0.142819 0.165649 55.845 4.79916e-07 
507 1 0.285714 0.178571 0.0416667 55.845 -8.13331e-08 
508 1 0.28564 0.2143 0.083211 55.845 -1.98049e-07 
509 1 0.321429 0.214286 0.0416667 55.845 -1.00902e-07 
518 1 0.285658 0.142838 0.0831991 55.845 -2.62589e-07 
519 1 0.321429 0.142857 0.0416667 55.845 -2.30473e-07 
520 1 0.321378 0.178612 0.0832329 55.845 -1.00144e-07 
521 1 0.357143 0.178571 0.0416667 55.845 -1.07195e-07 
522 1 0.35718 0.214306 0.0831956 55.845 -4.24978e-08 
534 1 0.357117 0.142908 0.0832196 55.845 1.55894e-07 
585 1 0.285714 0.214286 0 55.845 1.64851e-07 
590 1 0.285714 0.142857 0 55.845 5.82186e-08 
591 1 0.321429 0.178571 0 55.845 1.63634e-07 
592 1 0.357143 0.214286 0 55.845 1.30025e-07 
598 1 0.357143 0.142857 0 55.845 2.51922e-07 
319 1 0.392842 0.214278 0.207881 55.845 -4.26499e-07 
321 1 0.428574 0.249916 0.207981 55.845 -4.54807e-07 
331 1 0.392873 0.142868 0.207809 55.845 -4.76208e-07 
333 1 0.42854 0.178549 0.20782 55.845 -4.87418e-07 
335 1 0.464289 0.214344 0.207889 55.845 -4.69543e-07 
345 1 0.464273 0.142985 0.207925 55.845 -4.58764e-07 
606 1 0.464286 0.178571 0 55.845 3.96704e-08 
421 1 0.392916 0.214346 0.123836 55.845 3.40575e-08 
422 1 0.392784 0.249954 0.165672 55.845 4.59324e-07 
423 1 0.428565 0.249916 0.123921 55.845 1.03221e-07 
433 1 0.39283 0.142829 0.123797 55.845 1.67933e-08 
434 1 0.392744 0.178615 0.165679 55.845 3.86975e-07 
435 1 0.428623 0.178554 0.123799 55.845 1.91297e-07 
436 1 0.428623 0.214286 0.165765 55.845 3.47305e-07 
437 1 0.464361 0.214273 0.123951 55.845 1.6971e-07 
605 1 0.428571 0.142857 0 55.845 1.53745e-07 
446 1 0.428538 0.142811 0.165561 55.845 3.62549e-07 
447 1 0.464259 0.142951 0.123897 55.845 1.57756e-07 
448 1 0.464253 0.178637 0.165755 55.845 3.76614e-07 
523 1 0.392857 0.214286 0.0416667 55.845 -1.1907e-07 
524 1 0.392776 0.250061 0.0830505 55.845 -2.30478e-07 
525 1 0.428571 0.25 0.0416667 55.845 -1.21769e-07 
535 1 0.392857 0.142857 0.0416667 55.845 -7.70536e-08 
536 1 0.392753 0.178568 0.0831311 55.845 -2.05851e-08 
537 1 0.428571 0.178571 0.0416667 55.845 6.23308e-08 
538 1 0.428617 0.214295 0.0831575 55.845 -2.00613e-07 
539 1 0.464286 0.214286 0.0416667 55.845 1.10439e-07 
548 1 0.428635 0.142963 0.0831827 55.845 -1.60888e-07 
549 1 0.464286 0.142857 0.0416667 55.845 4.33175e-08 
550 1 0.464215 0.178509 0.0829721 55.845 -3.58549e-07 
593 1 0.392857 0.25 0 55.845 5.87391e-08 
599 1 0.392857 0.178571 0 55.845 2.7671e-07 
600 1 0.428571 0.214286 0 55.845 1.18679e-07 
3 1 2.57973e-05 0.107036 0.457066 55.845 1.99118e-08 
7 1 1.14387e-05 0.0355714 0.457073 55.845 8.4827e-10 
8 1 0.0356998 0.0713321 0.457085 55.845 6.85284e-08 
9 1 0.0714197 0.107078 0.456993 55.845 5.73592e-08 
13 1 0.0356673 -0.000185711 0.456923 55.845 9.85754e-08 
14 1 0.0715118 0.0357776 0.456987 55.845 1.1448e-07 
15 1 0.107282 0.0715127 0.457096 55.845 4.31052e-08 
20 1 0.107121 5.32818e-05 0.457039 55.845 1.56354e-07 
55 1 -4.10642e-05 0.10704 0.374274 55.845 -4.30868e-07 
63 1 4.29167e-05 0.0357786 0.374267 55.845 -2.96355e-07 
64 1 -3.87918e-05 0.071438 0.415135 55.845 3.83219e-07 
65 1 0.0357063 0.0713876 0.374426 55.845 -3.17712e-07 
66 1 0.0356653 0.107125 0.415196 55.845 3.32148e-07 
67 1 0.0713279 0.107077 0.374449 55.845 -1.95103e-07 
74 1 -1.96263e-05 -5.02829e-05 0.415044 55.845 1.74122e-07 
75 1 0.0357611 -1.75233e-05 0.374185 55.845 -1.54998e-07 
76 1 0.0356262 0.0356498 0.415105 55.845 2.01094e-07 
77 1 0.0715147 0.0356292 0.374312 55.845 -1.37799e-07 
78 1 0.0714347 0.0714609 0.415199 55.845 2.26602e-07 
79 1 0.107211 0.0714357 0.374361 55.845 -6.78469e-08 
80 1 0.107077 0.107147 0.415148 55.845 2.60935e-07 
88 1 0.0714012 -4.08551e-05 0.415061 55.845 1.16019e-07 
89 1 0.107126 -5.27544e-05 0.37435 55.845 -2.25628e-07 
90 1 0.107214 0.0356908 0.415222 55.845 1.48899e-07 
157 1 4.3258e-05 0.107101 0.292288 55.845 -4.26206e-08 
165 1 -8.4592e-05 0.0357233 0.292319 55.845 -3.56208e-08 
166 1 8.90647e-06 0.0713471 0.333373 55.845 -2.34233e-07 
167 1 0.0357656 0.0714518 0.292255 55.845 5.2965e-08 
168 1 0.0357262 0.10708 0.333399 55.845 -7.88506e-08 
169 1 0.0714149 0.107102 0.292356 55.845 2.0087e-07 
176 1 -1.42483e-05 -6.30837e-05 0.333448 55.845 -1.16566e-07 
177 1 0.0357118 2.43298e-05 0.292413 55.845 1.16176e-07 
178 1 0.0358096 0.0356159 0.333456 55.845 -2.66881e-07 
179 1 0.0715224 0.0356398 0.29216 55.845 1.02978e-07 
180 1 0.071527 0.0713715 0.333273 55.845 -1.2021e-07 
181 1 0.107215 0.0714187 0.292344 55.845 3.41629e-07 
182 1 0.107113 0.107126 0.333345 55.845 -1.0514e-07 
190 1 0.0714527 -5.74058e-05 0.333328 55.845 -2.87658e-07 
191 1 0.107123 -6.37833e-06 0.292341 55.845 4.1887e-08 
192 1 0.107213 0.0356067 0.333263 55.845 -2.15775e-07 
268 1 -2.59994e-05 0.0714212 0.250558 55.845 -4.23237e-07 
270 1 0.0357701 0.107095 0.250521 55.845 -3.00338e-07 
278 1 2.29625e-06 -3.4468e-05 0.250596 55.845 -4.85565e-08 
280 1 0.0356833 0.0357428 0.250633 55.845 -3.25169e-07 
282 1 0.0714969 0.0714887 0.250559 55.845 -2.84544e-07 
284 1 0.10714 0.10716 0.250515 55.845 -2.16465e-07 
292 1 0.0715045 -7.30369e-05 0.250497 55.845 -3.16704e-07 
294 1 0.107222 0.035645 0.250549 55.845 -2.20654e-07 
16 1 0.142846 0.107161 0.457009 55.845 1.42152e-07 
21 1 0.142945 0.0357708 0.457024 55.845 7.56175e-08 
22 1 0.178534 0.0714863 0.456957 55.845 1.31369e-07 
23 1 0.214262 0.107131 0.45717 55.845 1.79783e-10 
27 1 0.178686 -9.03174e-08 0.456823 55.845 2.08517e-08 
28 1 0.214297 0.0357003 0.456918 55.845 -3.78534e-08 
29 1 0.249948 0.0713411 0.456915 55.845 -1.79267e-08 
81 1 0.142814 0.107161 0.374239 55.845 -1.01019e-07 
91 1 0.142924 0.0356996 0.374159 55.845 -1.03756e-07 
92 1 0.142872 0.0715116 0.415063 55.845 1.39269e-07 
93 1 0.178508 0.0715187 0.374036 55.845 -1.35258e-07 
94 1 0.178596 0.107157 0.415033 55.845 1.55082e-07 
95 1 0.214235 0.107138 0.374276 55.845 -1.57907e-07 
102 1 0.142895 -4.7243e-05 0.41496 55.845 2.69297e-07 
103 1 0.178549 2.70759e-05 0.374387 55.845 -2.98168e-07 
104 1 0.178524 0.0357327 0.415008 55.845 1.86973e-07 
105 1 0.21432 0.0357719 0.374221 55.845 -2.36837e-07 
106 1 0.214294 0.0714539 0.414874 55.845 2.34901e-07 
107 1 0.250045 0.0713997 0.374383 55.845 -3.17285e-07 
108 1 0.249993 0.107212 0.415125 55.845 3.42361e-07 
118 1 0.214341 -2.43287e-05 0.414897 55.845 4.16151e-07 
120 1 0.249929 0.0356131 0.414941 55.845 3.91484e-07 
183 1 0.142789 0.107225 0.292169 55.845 1.45693e-07 
193 1 0.142911 0.0357203 0.292273 55.845 1.50672e-07 
194 1 0.142882 0.0714485 0.333198 55.845 -1.393e-07 
195 1 0.178582 0.0714182 0.292394 55.845 1.16721e-07 
196 1 0.178503 0.107175 0.333365 55.845 -2.83214e-07 
197 1 0.214345 0.10713 0.292402 55.845 -1.22743e-08 
204 1 0.142937 4.61741e-05 0.333178 55.845 -1.20545e-07 
205 1 0.178647 8.2518e-05 0.292304 55.845 7.0527e-08 
206 1 0.178561 0.0357204 0.333445 55.845 -1.4677e-07 
207 1 0.214277 0.0357314 0.292448 55.845 8.82828e-09 
208 1 0.2143 0.0714253 0.333247 55.845 -3.03406e-07 
209 1 0.249961 0.0714253 0.292288 55.845 -2.72675e-09 
210 1 0.249976 0.107127 0.333403 55.845 -1.9647e-07 
220 1 0.214404 -5.73422e-05 0.333254 55.845 -4.66522e-09 
222 1 0.250067 0.0356572 0.333327 55.845 -1.67126e-07 
296 1 0.142824 0.0714747 0.250439 55.845 -1.75568e-07 
298 1 0.178653 0.10705 0.25063 55.845 -2.42453e-07 
306 1 0.142868 5.70108e-05 0.250448 55.845 -2.32321e-07 
308 1 0.178613 0.0357532 0.250573 55.845 -1.03312e-07 
310 1 0.214309 0.0713631 0.250553 55.845 -2.73337e-07 
312 1 0.250004 0.10706 0.250565 55.845 -1.95198e-07 
322 1 0.214374 3.32192e-05 0.250536 55.845 -1.30722e-07 
324 1 0.249992 0.0357761 0.25041 55.845 -2.88361e-07 
30 1 0.285715 0.107178 0.457009 55.845 -1.04514e-07 
35 1 0.250026 -5.12739e-06 0.456831 55.845 -1.27289e-07 
36 1 0.285662 0.035679 0.456841 55.845 -4.8488e-08 
37 1 0.321397 0.0713775 0.456994 55.845 7.56933e-08 
38 1 0.357116 0.107101 0.457177 55.845 1.04164e-07 
42 1 0.321401 -8.67639e-05 0.456992 55.845 1.51614e-08 
43 1 0.357113 0.0356006 0.456949 55.845 8.97267e-08 
109 1 0.28578 0.107165 0.37425 55.845 -2.48978e-07 
119 1 0.250004 -7.99758e-05 0.374227 55.845 -3.80912e-07 
121 1 0.28582 0.0356585 0.374325 55.845 -3.14004e-07 
122 1 0.285682 0.0714257 0.415093 55.845 3.77421e-07 
123 1 0.321475 0.0714658 0.374463 55.845 -2.87946e-07 
124 1 0.321479 0.107218 0.415219 55.845 3.63501e-07 
125 1 0.357173 0.10713 0.374262 55.845 -2.18042e-07 
133 1 0.321473 -8.73287e-05 0.37425 55.845 -3.31699e-07 
134 1 0.321431 0.035728 0.415063 55.845 3.94711e-07 
135 1 0.357209 0.0357045 0.374238 55.845 -1.52908e-07 
136 1 0.357226 0.0714688 0.415183 55.845 2.85073e-07 
211 1 0.285634 0.107178 0.292353 55.845 -3.97961e-08 
221 1 0.250081 -1.70305e-05 0.292127 55.845 1.07874e-07 
223 1 0.285813 0.0357563 0.29231 55.845 -7.03835e-08 
224 1 0.285819 0.0713917 0.333425 55.845 -1.59065e-07 
225 1 0.321435 0.0714728 0.292321 55.845 6.52989e-08 
226 1 0.321511 0.107167 0.333135 55.845 -1.91724e-08 
227 1 0.357206 0.107055 0.292347 55.845 -1.07217e-07 
235 1 0.321432 3.24353e-05 0.292205 55.845 -5.03645e-09 
236 1 0.321505 0.0356966 0.333344 55.845 -4.38772e-08 
237 1 0.35724 0.035778 0.292298 55.845 4.74214e-08 
238 1 0.357238 0.0713805 0.333223 55.845 3.71899e-08 
326 1 0.285678 0.0713853 0.250761 55.845 -2.6213e-07 
328 1 0.321483 0.107118 0.250631 55.845 -2.88788e-08 
338 1 0.321459 0.0355974 0.250643 55.845 -1.23943e-07 
340 1 0.35726 0.0714654 0.250461 55.845 -6.2997e-08 
44 1 0.392875 0.0715232 0.456909 55.845 3.06247e-08 
45 1 0.428562 0.107057 0.457085 55.845 -1.63864e-07 
47 1 0.392889 -0.000128969 0.456866 55.845 1.27239e-07 
48 1 0.428613 0.0356742 0.45701 55.845 -8.97686e-08 
49 1 0.464297 0.0713875 0.45703 55.845 -1.5091e-07 
50 1 0.464285 -4.88265e-05 0.456883 55.845 1.44371e-08 
137 1 0.39295 0.0713916 0.374259 55.845 -1.91543e-07 
138 1 0.39283 0.10721 0.415183 55.845 3.44322e-07 
139 1 0.428582 0.107124 0.374451 55.845 -3.12218e-07 
144 1 0.39284 -4.10548e-05 0.374079 55.845 -2.18397e-07 
145 1 0.392946 0.0357588 0.415134 55.845 2.72673e-07 
146 1 0.428693 0.0357393 0.374202 55.845 -1.12088e-07 
147 1 0.428673 0.0714467 0.415106 55.845 3.79857e-07 
148 1 0.464278 0.0714367 0.374209 55.845 -3.1542e-07 
149 1 0.464318 0.107137 0.415072 55.845 4.64983e-07 
150 1 0.428544 1.95045e-05 0.415 55.845 3.28952e-07 
151 1 0.464307 6.37337e-05 0.374016 55.845 -1.59786e-07 
152 1 0.464349 0.0357433 0.415042 55.845 3.10905e-07 
239 1 0.392969 0.0712943 0.292247 55.845 2.41215e-07 
240 1 0.3929 0.107081 0.333364 55.845 -5.27986e-09 
241 1 0.428536 0.107094 0.292282 55.845 -5.02155e-08 
246 1 0.392837 2.36066e-05 0.292223 55.845 3.1134e-08 
247 1 0.392885 0.035629 0.333242 55.845 -1.92708e-08 
248 1 0.428573 0.0356217 0.292076 55.845 1.68912e-07 
249 1 0.428601 0.0713865 0.333165 55.845 7.0876e-10 
250 1 0.464148 0.0714531 0.292176 55.845 1.09352e-08 
251 1 0.464246 0.107145 0.333319 55.845 1.28037e-07 
252 1 0.428556 2.02109e-06 0.333138 55.845 -8.53497e-08 
253 1 0.464393 6.41753e-05 0.292176 55.845 1.0294e-07 
254 1 0.464326 0.0358198 0.333198 55.845 -9.30398e-08 
342 1 0.39281 0.107188 0.250515 55.845 -7.01625e-08 
349 1 0.392957 0.0356788 0.250364 55.845 -4.18476e-08 
351 1 0.428514 0.0714183 0.250467 55.845 -1.57615e-08 
353 1 0.46426 0.107203 0.250448 55.845 1.37859e-07 
354 1 0.428783 2.04177e-05 0.250587 55.845 -3.59303e-08 
356 1 0.464341 0.0357351 0.250547 55.845 -4.565e-09 
1 1 -7.20901e-06 0.178598 0.456885 55.845 -8.83139e-08 
2 1 0.0357335 0.214316 0.457 55.845 5.20237e-08 
4 1 0.0357044 0.142843 0.456998 55.845 -4.02442e-08 
5 1 0.0714759 0.178505 0.456891 55.845 1.43175e-07 
6 1 0.107107 0.214278 0.457014 55.845 1.71417e-07 
10 1 0.10714 0.14288 0.456907 55.845 1.24116e-07 
51 1 -9.20936e-06 0.178444 0.374288 55.845 -2.25697e-07 
52 1 -7.01867e-06 0.214287 0.414774 55.845 2.6232e-07 
53 1 0.0357665 0.21421 0.373969 55.845 -1.54148e-07 
54 1 0.0357154 0.249977 0.414885 55.845 2.4718e-07 
56 1 2.87644e-06 0.142751 0.414919 55.845 3.55546e-07 
57 1 0.0357859 0.142718 0.374127 55.845 -2.33794e-07 
58 1 0.03576 0.178515 0.415011 55.845 3.57463e-07 
59 1 0.0714347 0.178479 0.374336 55.845 -2.63046e-07 
60 1 0.0714259 0.21429 0.414955 55.845 2.81792e-07 
61 1 0.107088 0.214387 0.374233 55.845 -1.55107e-07 
62 1 0.107091 0.250107 0.415067 55.845 2.5136e-07 
68 1 0.0714104 0.142772 0.415044 55.845 3.45998e-07 
69 1 0.107128 0.14287 0.374277 55.845 -2.06639e-07 
70 1 0.107119 0.178581 0.415082 55.845 3.55307e-07 
153 1 -9.64356e-06 0.178547 0.292112 55.845 2.80761e-07 
154 1 -9.5908e-05 0.214302 0.333142 55.845 -1.85786e-07 
155 1 0.0357156 0.2143 0.292288 55.845 1.68715e-07 
156 1 0.0356831 0.250013 0.333334 55.845 -3.72425e-07 
158 1 6.26472e-06 0.142725 0.333243 55.845 -8.74972e-09 
159 1 0.0357536 0.142841 0.29212 55.845 1.72835e-07 
160 1 0.0357198 0.178522 0.333231 55.845 -3.55959e-08 
161 1 0.0714026 0.178545 0.292355 55.845 8.94451e-08 
162 1 0.0714999 0.214283 0.333087 55.845 -1.60192e-07 
163 1 0.107181 0.214294 0.29237 55.845 1.08666e-07 
164 1 0.10719 0.250063 0.33328 55.845 -1.78591e-07 
170 1 0.0714732 0.14279 0.33328 55.845 -6.70486e-09 
171 1 0.107182 0.14287 0.292339 55.845 9.39201e-08 
172 1 0.107174 0.178629 0.333457 55.845 -2.31572e-07 
256 1 -4.16478e-05 0.214291 0.250547 55.845 -2.61175e-07 
258 1 0.035721 0.250034 0.250781 55.845 -4.83326e-07 
260 1 -0.000123705 0.142844 0.250409 55.845 -1.62426e-07 
262 1 0.035723 0.178535 0.2505 55.845 -2.08713e-07 
264 1 0.0714303 0.214275 0.250573 55.845 -4.12961e-07 
266 1 0.107135 0.250044 0.250671 55.845 -2.4842e-07 
272 1 0.0714944 0.142815 0.25058 55.845 -2.64354e-07 
274 1 0.1071 0.178611 0.250642 55.845 -3.90708e-07 
11 1 0.142837 0.178517 0.457033 55.845 1.86786e-07 
12 1 0.178552 0.214273 0.456967 55.845 6.07002e-08 
17 1 0.17857 0.142891 0.456872 55.845 1.4998e-07 
18 1 0.214354 0.178635 0.457172 55.845 -9.1084e-08 
19 1 0.250072 0.214328 0.456929 55.845 -3.78544e-08 
24 1 0.250034 0.14288 0.456869 55.845 -1.50172e-07 
71 1 0.142788 0.178618 0.374363 55.845 -2.12109e-07 
72 1 0.142809 0.214256 0.415026 55.845 2.00147e-07 
73 1 0.178629 0.214348 0.374298 55.845 -1.19352e-07 
82 1 0.142784 0.142825 0.414947 55.845 2.54183e-07 
83 1 0.17852 0.142939 0.374378 55.845 -2.03761e-07 
84 1 0.178523 0.178653 0.414965 55.845 1.99541e-07 
85 1 0.214366 0.178549 0.374317 55.845 -1.29874e-07 
86 1 0.214307 0.214314 0.4152 55.845 2.38072e-07 
87 1 0.250117 0.214386 0.374277 55.845 -2.77864e-07 
96 1 0.214303 0.142818 0.415072 55.845 2.63244e-07 
97 1 0.250045 0.142908 0.374402 55.845 -2.70218e-07 
98 1 0.250046 0.178665 0.415104 55.845 3.61103e-07 
173 1 0.142895 0.178584 0.292389 55.845 6.69318e-08 
174 1 0.142835 0.214313 0.333263 55.845 -1.78751e-07 
175 1 0.178516 0.214374 0.292361 55.845 2.34394e-07 
184 1 0.142872 0.142846 0.333367 55.845 -2.37854e-07 
185 1 0.178552 0.14275 0.292269 55.845 8.03778e-08 
186 1 0.178656 0.178518 0.333396 55.845 -2.65886e-07 
187 1 0.214285 0.178589 0.292404 55.845 1.67484e-07 
188 1 0.214337 0.214346 0.333423 55.845 -1.76172e-07 
189 1 0.250032 0.214384 0.29238 55.845 1.06075e-07 
198 1 0.21426 0.14287 0.333319 55.845 -2.15965e-07 
199 1 0.249909 0.142913 0.292366 55.845 2.02358e-07 
200 1 0.250043 0.178628 0.333405 55.845 -1.05316e-07 
276 1 0.142875 0.214336 0.25055 55.845 -3.63327e-07 
286 1 0.142902 0.142951 0.250514 55.845 -4.16486e-07 
288 1 0.178636 0.178626 0.250642 55.845 -3.10581e-07 
290 1 0.214242 0.214383 0.250612 55.845 -2.39399e-07 
300 1 0.214314 0.142891 0.250565 55.845 -2.31407e-07 
302 1 0.249906 0.178577 0.250683 55.845 -8.25402e-08 
25 1 0.285806 0.178669 0.456972 55.845 -9.62947e-08 
26 1 0.32148 0.214297 0.457034 55.845 1.29225e-07 
31 1 0.321384 0.142898 0.457069 55.845 1.04357e-07 
32 1 0.357131 0.178608 0.457039 55.845 1.72522e-07 
99 1 0.285787 0.178573 0.374445 55.845 -2.17245e-07 
100 1 0.285859 0.214253 0.414967 55.845 3.10374e-07 
101 1 0.32152 0.214285 0.374253 55.845 -2.91083e-07 
110 1 0.285647 0.142868 0.415255 55.845 3.66837e-07 
111 1 0.321382 0.142844 0.374353 55.845 -3.33514e-07 
112 1 0.321574 0.178618 0.415059 55.845 3.42773e-07 
113 1 0.357162 0.178543 0.374119 55.845 -2.35233e-07 
114 1 0.357237 0.214197 0.415088 55.845 2.58313e-07 
126 1 0.357199 0.142884 0.415285 55.845 3.45395e-07 
201 1 0.285724 0.178514 0.292298 55.845 6.36907e-08 
202 1 0.28576 0.214294 0.33328 55.845 -7.56722e-08 
203 1 0.321457 0.214294 0.292378 55.845 1.03948e-08 
212 1 0.285696 0.142908 0.333267 55.845 3.79214e-08 
213 1 0.321406 0.142844 0.292324 55.845 8.53835e-09 
214 1 0.321406 0.178558 0.333311 55.845 -3.12551e-08 
215 1 0.357156 0.17865 0.292398 55.845 -1.38022e-07 