ITEM: TIMESTEP
6800
ITEM: NUMBER OF ATOMS
5880
ITEM: BOX BOUNDS pp pp ff
-27.9187 27.9187
-27.9187 27.9187
0 34.092
ITEM: ATOMS id type xs ys zs mass q 
259 1 3.79809e-05 0.107172 0.209022 55.845 4.70219e-07 
267 1 4.61629e-05 0.0357662 0.20913 55.845 4.0226e-07 
269 1 0.0356535 0.0715961 0.209225 55.845 4.24946e-07 
271 1 0.0714429 0.107131 0.209174 55.845 6.32028e-07 
279 1 0.0358305 -5.34899e-05 0.2093 55.845 2.6314e-07 
281 1 0.071519 0.035733 0.209363 55.845 4.54309e-07 
283 1 0.107126 0.0714241 0.209347 55.845 6.39102e-07 
293 1 0.107214 -7.59256e-05 0.209244 55.845 1.97723e-07 
361 1 -5.6423e-05 0.107141 0.126582 55.845 -4.74929e-07 
369 1 7.37302e-06 0.0357522 0.126625 55.845 -4.57732e-07 
370 1 7.56751e-06 0.0714455 0.167972 55.845 -1.68797e-07 
371 1 0.0356949 0.071411 0.126635 55.845 -5.30465e-07 
372 1 0.0357065 0.107061 0.167809 55.845 -3.94884e-07 
373 1 0.0714226 0.107147 0.126616 55.845 -7.02396e-07 
380 1 6.04012e-05 3.01315e-05 0.168115 55.845 -1.8768e-07 
381 1 0.0356686 6.64123e-05 0.126691 55.845 -5.09819e-07 
382 1 0.0357427 0.0357091 0.168231 55.845 -1.5703e-07 
383 1 0.0714079 0.0357231 0.126683 55.845 -5.53977e-07 
384 1 0.0714603 0.0714188 0.167987 55.845 -1.92493e-07 
385 1 0.107219 0.0714324 0.126729 55.845 -8.10411e-07 
386 1 0.107091 0.107066 0.168018 55.845 -2.33914e-07 
394 1 0.0714612 3.67898e-05 0.168049 55.845 -3.12906e-08 
395 1 0.10704 -1.77057e-06 0.126558 55.845 -3.65397e-07 
396 1 0.10716 0.0357052 0.168012 55.845 -1.16724e-07 
463 1 0 0.107143 0.0416667 55.845 6.32583e-07 
471 1 0 0.0357143 0.0416667 55.845 6.36168e-07 
472 1 5.488e-05 0.0714539 0.0844525 55.845 5.829e-07 
473 1 0.0357143 0.0714286 0.0416667 55.845 6.77511e-07 
474 1 0.0357376 0.107111 0.084403 55.845 4.54288e-07 
475 1 0.0714286 0.107143 0.0416667 55.845 6.03364e-07 
482 1 -2.21262e-05 -9.4401e-05 0.0843707 55.845 2.09456e-07 
483 1 0.0357143 0 0.0416667 55.845 4.30337e-07 
484 1 0.0357017 0.0356651 0.0843369 55.845 4.82588e-07 
485 1 0.0714286 0.0357143 0.0416667 55.845 4.70266e-07 
486 1 0.0715346 0.0714631 0.0843993 55.845 4.31187e-07 
487 1 0.107143 0.0714286 0.0416667 55.845 3.38701e-07 
488 1 0.107275 0.107075 0.0843556 55.845 4.15253e-07 
496 1 0.0713878 -3.94299e-05 0.0842294 55.845 3.78765e-07 
497 1 0.107143 0 0.0416667 55.845 5.54072e-07 
498 1 0.107138 0.0356853 0.0843519 55.845 1.94335e-07 
567 1 0 0.0714286 0 55.845 -3.01638e-07 
568 1 0.0357143 0.107143 0 55.845 -4.07387e-07 
572 1 0 0 0 55.845 -4.76702e-07 
573 1 0.0357143 0.0357143 0 55.845 -4.32336e-07 
574 1 0.0714286 0.0714286 0 55.845 -5.2273e-07 
575 1 0.107143 0.107143 0 55.845 -7.0733e-07 
579 1 0.0714286 0 0 55.845 -2.38751e-07 
580 1 0.107143 0.0357143 0 55.845 -4.03101e-07 
285 1 0.142789 0.107112 0.209115 55.845 4.84987e-07 
295 1 0.142916 0.0356729 0.209252 55.845 3.44311e-07 
297 1 0.178504 0.0714151 0.209202 55.845 3.3497e-07 
299 1 0.214252 0.107052 0.20921 55.845 3.26631e-07 
307 1 0.178548 5.45393e-05 0.209242 55.845 3.32105e-07 
309 1 0.214341 0.0357301 0.209109 55.845 3.86231e-07 
311 1 0.25002 0.0714102 0.209127 55.845 4.05284e-07 
387 1 0.14288 0.107158 0.126734 55.845 -6.58934e-07 
397 1 0.142844 0.0357455 0.126643 55.845 -5.81392e-07 
398 1 0.142879 0.071417 0.168024 55.845 -1.38962e-07 
399 1 0.178594 0.0713547 0.126577 55.845 -6.35775e-07 
400 1 0.178527 0.107085 0.168063 55.845 4.15518e-08 
401 1 0.214254 0.107168 0.126819 55.845 -5.46224e-07 
408 1 0.142769 7.94932e-05 0.168101 55.845 -1.37913e-09 
409 1 0.178567 -1.07443e-05 0.126823 55.845 -4.09123e-07 
410 1 0.178544 0.0357103 0.168058 55.845 -1.70453e-07 
411 1 0.214363 0.0356618 0.126709 55.845 -5.86868e-07 
412 1 0.21433 0.0714298 0.168108 55.845 -1.68089e-07 
413 1 0.249944 0.0714351 0.126679 55.845 -5.46981e-07 
414 1 0.24998 0.107167 0.168088 55.845 2.78499e-09 
424 1 0.214341 1.08077e-05 0.16818 55.845 -2.18199e-07 
426 1 0.249998 0.0355622 0.168081 55.845 -1.87131e-07 
489 1 0.142857 0.107143 0.0416667 55.845 5.50266e-07 
499 1 0.142857 0.0357143 0.0416667 55.845 3.96702e-07 
500 1 0.142933 0.0713992 0.0843861 55.845 3.16789e-07 
501 1 0.178571 0.0714286 0.0416667 55.845 6.31373e-07 
502 1 0.178554 0.1071 0.0842163 55.845 4.29742e-07 
503 1 0.214286 0.107143 0.0416667 55.845 4.12485e-07 
510 1 0.142845 4.84842e-05 0.0844575 55.845 3.67108e-07 
511 1 0.178571 0 0.0416667 55.845 3.0964e-07 
512 1 0.178648 0.0356478 0.0843659 55.845 3.40113e-07 
513 1 0.214286 0.0357143 0.0416667 55.845 5.23843e-07 
514 1 0.214284 0.0714288 0.084401 55.845 4.76957e-07 
515 1 0.25 0.0714286 0.0416667 55.845 7.1748e-07 
516 1 0.249912 0.107102 0.0842702 55.845 3.26244e-07 
526 1 0.214307 2.78376e-05 0.08434 55.845 2.91023e-07 
528 1 0.25005 0.0357931 0.084188 55.845 5.34622e-07 
581 1 0.142857 0.0714286 0 55.845 -5.63455e-07 
582 1 0.178571 0.107143 0 55.845 -4.10327e-07 
586 1 0.142857 0 0 55.845 -2.24199e-07 
587 1 0.178571 0.0357143 0 55.845 -4.54759e-07 
588 1 0.214286 0.0714286 0 55.845 -3.56995e-07 
589 1 0.25 0.107143 0 55.845 -3.43934e-07 
594 1 0.214286 0 0 55.845 -4.93884e-07 
595 1 0.25 0.0357143 0 55.845 -3.88978e-07 
313 1 0.285678 0.10701 0.209241 55.845 5.9103e-07 
323 1 0.249955 -0.000109495 0.209287 55.845 4.58179e-07 
325 1 0.2858 0.0357034 0.209055 55.845 5.65111e-07 
327 1 0.321406 0.0714325 0.209232 55.845 8.10016e-07 
329 1 0.357194 0.107154 0.209201 55.845 6.69729e-07 
337 1 0.321421 -3.32295e-05 0.209098 55.845 7.09688e-07 
339 1 0.357249 0.035692 0.209178 55.845 6.7114e-07 
415 1 0.285666 0.107141 0.12677 55.845 -7.27367e-07 
425 1 0.25013 -3.39596e-05 0.126554 55.845 -5.00582e-07 
427 1 0.285676 0.0356754 0.126703 55.845 -6.9469e-07 
428 1 0.285736 0.0714179 0.168041 55.845 -8.30803e-08 
429 1 0.321378 0.0713862 0.126587 55.845 -8.81468e-07 
430 1 0.321339 0.10712 0.168082 55.845 -2.7676e-07 
431 1 0.357195 0.107052 0.12676 55.845 -8.19903e-07 
439 1 0.321323 1.71025e-05 0.126645 55.845 -6.29214e-07 
440 1 0.321493 0.0357568 0.167998 55.845 -2.04206e-07 
441 1 0.357075 0.0356445 0.126652 55.845 -9.10787e-07 
442 1 0.357099 0.0714523 0.168002 55.845 -2.60098e-07 
517 1 0.285714 0.107143 0.0416667 55.845 5.953e-07 
527 1 0.25 0 0.0416667 55.845 4.72081e-07 
529 1 0.285714 0.0357143 0.0416667 55.845 7.42413e-07 
530 1 0.285724 0.0714036 0.0842902 55.845 5.54809e-07 
531 1 0.321429 0.0714286 0.0416667 55.845 7.80396e-07 
532 1 0.321443 0.107142 0.084456 55.845 5.6706e-07 
533 1 0.357143 0.107143 0.0416667 55.845 8.94367e-07 
603 1 0.357143 0.0714286 0 55.845 -6.78296e-07 
541 1 0.321429 0 0.0416667 55.845 6.5118e-07 
542 1 0.321432 0.0356506 0.0843687 55.845 5.42238e-07 
543 1 0.357143 0.0357143 0.0416667 55.845 7.07939e-07 
544 1 0.357139 0.0713866 0.0844919 55.845 5.91142e-07 
602 1 0.321429 0.0357143 0 55.845 -5.65231e-07 
596 1 0.285714 0.0714286 0 55.845 -5.23775e-07 
597 1 0.321429 0.107143 0 55.845 -6.20671e-07 
612 1 0.464286 0.0357143 0 55.845 -3.79266e-07 
611 1 0.428571 0 0 55.845 -3.29736e-07 
610 1 0.464286 0.107143 0 55.845 -3.5291e-07 
609 1 0.428571 0.0714286 0 55.845 -5.59765e-07 
608 1 0.392857 0.0357143 0 55.845 -7.24348e-07 
341 1 0.392845 0.0713861 0.209136 55.845 7.4678e-07 
343 1 0.428613 0.107159 0.209306 55.845 6.34649e-07 
348 1 0.392812 -6.97762e-05 0.209155 55.845 3.86836e-07 
350 1 0.428646 0.0357028 0.209223 55.845 3.91387e-07 
352 1 0.4643 0.0714766 0.209278 55.845 2.12596e-07 
355 1 0.464312 -6.48987e-05 0.209248 55.845 1.17627e-07 
443 1 0.392918 0.0713832 0.12677 55.845 -9.13877e-07 
444 1 0.392934 0.10709 0.16813 55.845 -1.9505e-07 
445 1 0.428634 0.107106 0.126695 55.845 -8.90068e-07 
604 1 0.392857 0.107143 0 55.845 -5.04119e-07 
450 1 0.392782 -6.42423e-05 0.126676 55.845 -6.52943e-07 
451 1 0.39297 0.0356686 0.167899 55.845 -1.7771e-07 
452 1 0.4286 0.0356898 0.126515 55.845 -5.67538e-07 
453 1 0.428576 0.0713449 0.168209 55.845 -2.9624e-08 
454 1 0.464268 0.0714064 0.126762 55.845 -6.86525e-07 
455 1 0.464352 0.107109 0.168076 55.845 -9.74286e-08 
456 1 0.428478 2.25539e-05 0.168078 55.845 -1.1072e-07 
457 1 0.464252 -1.79377e-05 0.126616 55.845 -4.21629e-07 
458 1 0.464274 0.0356924 0.16807 55.845 -2.90408e-08 
545 1 0.392857 0.0714286 0.0416667 55.845 6.35464e-07 
546 1 0.392858 0.107158 0.0843461 55.845 4.77891e-07 
547 1 0.428571 0.107143 0.0416667 55.845 4.25154e-07 
552 1 0.392857 0 0.0416667 55.845 6.17971e-07 
553 1 0.392813 0.0356602 0.0843117 55.845 4.38891e-07 
554 1 0.428571 0.0357143 0.0416667 55.845 5.24087e-07 
555 1 0.428588 0.0714231 0.0843383 55.845 2.44454e-07 
556 1 0.464286 0.0714286 0.0416667 55.845 4.46488e-07 
557 1 0.464328 0.107191 0.0843338 55.845 2.99463e-07 
558 1 0.428577 -1.36983e-05 0.0844011 55.845 3.89255e-07 
559 1 0.464286 0 0.0416667 55.845 4.10191e-07 
560 1 0.46429 0.0357545 0.0844114 55.845 4.08057e-07 
255 1 2.44605e-05 0.17859 0.209185 55.845 6.15481e-07 
257 1 0.0357044 0.214235 0.209196 55.845 3.37394e-07 
261 1 0.0356769 0.142767 0.209118 55.845 6.97086e-07 
263 1 0.071326 0.178618 0.209272 55.845 5.30586e-07 
265 1 0.107246 0.214262 0.209195 55.845 4.86605e-07 
273 1 0.107201 0.142805 0.209126 55.845 5.23974e-07 
357 1 8.97591e-05 0.178518 0.12656 55.845 -5.24919e-07 
358 1 4.52275e-05 0.214196 0.168099 55.845 -4.16261e-07 
359 1 0.0357963 0.214282 0.126709 55.845 -4.61562e-07 
360 1 0.035723 0.249967 0.168255 55.845 -2.05826e-07 
362 1 -2.30791e-05 0.142887 0.168011 55.845 -2.65206e-07 
363 1 0.0357128 0.142916 0.126671 55.845 -6.60512e-07 
364 1 0.035758 0.178531 0.167951 55.845 -3.73734e-07 
365 1 0.0715443 0.178541 0.126721 55.845 -5.1508e-07 
366 1 0.0714733 0.214261 0.168108 55.845 -2.72264e-07 
367 1 0.107197 0.214302 0.12674 55.845 -3.31519e-07 
368 1 0.107244 0.25002 0.168012 55.845 -1.80401e-07 
374 1 0.0715017 0.142832 0.168158 55.845 -4.11641e-07 
375 1 0.107198 0.142852 0.126623 55.845 -6.19906e-07 
376 1 0.107152 0.17859 0.168005 55.845 -8.64057e-08 
459 1 0 0.178571 0.0416667 55.845 2.38562e-07 
460 1 3.21628e-05 0.214247 0.0841714 55.845 3.79229e-07 
461 1 0.0357143 0.214286 0.0416667 55.845 5.92882e-07 
462 1 0.0357413 0.249961 0.0844043 55.845 5.65896e-07 
464 1 5.18266e-05 0.142901 0.0843417 55.845 3.06683e-07 
465 1 0.0357143 0.142857 0.0416667 55.845 3.89507e-07 
466 1 0.0358486 0.178598 0.0843674 55.845 3.28008e-07 
467 1 0.0714286 0.178571 0.0416667 55.845 6.12354e-07 
468 1 0.0714908 0.214287 0.0842476 55.845 4.75961e-07 
469 1 0.107143 0.214286 0.0416667 55.845 3.96134e-07 
470 1 0.107049 0.250042 0.0844771 55.845 2.18796e-07 
476 1 0.0715299 0.142853 0.0843169 55.845 4.46213e-07 
477 1 0.107143 0.142857 0.0416667 55.845 6.02662e-07 
478 1 0.107038 0.178621 0.0842546 55.845 4.66006e-07 
561 1 0 0.214286 0 55.845 -6.09525e-07 
562 1 0.0357143 0.25 0 55.845 -2.61131e-07 
563 1 0 0.142857 0 55.845 -4.83599e-07 
564 1 0.0357143 0.178571 0 55.845 -5.84688e-07 
565 1 0.0714286 0.214286 0 55.845 -1.92024e-07 
566 1 0.107143 0.25 0 55.845 -3.05164e-07 
569 1 0.0714286 0.142857 0 55.845 -5.667e-07 
570 1 0.107143 0.178571 0 55.845 -2.34615e-07 
275 1 0.142895 0.178591 0.209113 55.845 2.86254e-07 
277 1 0.178601 0.214249 0.209073 55.845 2.24067e-07 
287 1 0.178646 0.14282 0.209069 55.845 9.88783e-08 
289 1 0.214295 0.178499 0.209193 55.845 1.94771e-07 
291 1 0.249943 0.214172 0.209108 55.845 2.79958e-07 
301 1 0.250053 0.142796 0.209307 55.845 3.58117e-07 
377 1 0.14292 0.178554 0.126623 55.845 -4.30434e-07 
378 1 0.142815 0.214335 0.168007 55.845 -1.50439e-07 
379 1 0.178587 0.214287 0.126785 55.845 -3.29678e-07 
388 1 0.142833 0.142899 0.168035 55.845 -1.66976e-07 
389 1 0.178618 0.142828 0.12674 55.845 -4.65178e-07 
390 1 0.178599 0.178564 0.168101 55.845 -2.12444e-07 
391 1 0.214212 0.178471 0.126714 55.845 -2.85576e-07 
392 1 0.214269 0.214226 0.16804 55.845 -2.05624e-07 
393 1 0.249882 0.214243 0.126702 55.845 -3.97664e-07 
402 1 0.214353 0.142825 0.168123 55.845 5.85102e-09 
403 1 0.249969 0.142779 0.12647 55.845 -5.6739e-07 
404 1 0.249985 0.178533 0.168008 55.845 -1.19489e-07 
479 1 0.142857 0.178571 0.0416667 55.845 5.55789e-07 
480 1 0.142889 0.214277 0.084165 55.845 2.09382e-07 
481 1 0.178571 0.214286 0.0416667 55.845 3.18834e-07 
490 1 0.142891 0.142825 0.0842734 55.845 5.38999e-07 
491 1 0.178571 0.142857 0.0416667 55.845 4.99758e-07 
492 1 0.178606 0.17858 0.0844064 55.845 4.07935e-07 
493 1 0.214286 0.178571 0.0416667 55.845 2.61818e-07 
494 1 0.21436 0.214196 0.0843602 55.845 3.31907e-07 
495 1 0.25 0.214286 0.0416667 55.845 3.9849e-07 
504 1 0.214346 0.142821 0.0843356 55.845 1.95447e-07 
505 1 0.25 0.142857 0.0416667 55.845 3.3166e-07 
506 1 0.24996 0.178556 0.0841751 55.845 1.91096e-07 
571 1 0.142857 0.214286 0 55.845 -3.68521e-07 
576 1 0.142857 0.142857 0 55.845 -2.17743e-07 
577 1 0.178571 0.178571 0 55.845 -1.88539e-07 
578 1 0.214286 0.214286 0 55.845 -5.02344e-07 
583 1 0.214286 0.142857 0 55.845 -3.20505e-07 
584 1 0.25 0.178571 0 55.845 -4.01836e-07 
303 1 0.285615 0.178483 0.209091 55.845 2.36188e-07 
305 1 0.321276 0.214309 0.209255 55.845 2.98319e-07 
315 1 0.321384 0.142811 0.209321 55.845 4.19472e-07 
317 1 0.35704 0.178503 0.209257 55.845 4.53091e-07 
405 1 0.285643 0.178667 0.126546 55.845 -4.67383e-07 
406 1 0.285632 0.214318 0.168221 55.845 -1.39825e-07 
407 1 0.321379 0.214265 0.126798 55.845 -3.84862e-07 
416 1 0.285668 0.142888 0.168145 55.845 -2.28432e-07 
417 1 0.321372 0.142967 0.126782 55.845 -6.0751e-07 
418 1 0.321381 0.17854 0.168089 55.845 -8.61065e-08 
419 1 0.357006 0.178548 0.126703 55.845 -4.95265e-07 
420 1 0.357007 0.214215 0.168173 55.845 -9.62412e-08 
432 1 0.357088 0.14277 0.168139 55.845 -1.27111e-07 
507 1 0.285714 0.178571 0.0416667 55.845 3.50678e-07 
508 1 0.285678 0.214286 0.0844221 55.845 3.57214e-07 
509 1 0.321429 0.214286 0.0416667 55.845 3.34724e-07 
518 1 0.285633 0.14283 0.084413 55.845 2.90454e-07 
519 1 0.321429 0.142857 0.0416667 55.845 5.38611e-07 
520 1 0.321449 0.178598 0.0843008 55.845 4.64847e-07 
521 1 0.357143 0.178571 0.0416667 55.845 4.66904e-07 
522 1 0.357084 0.214283 0.0842676 55.845 1.68135e-07 
534 1 0.357144 0.142854 0.0843594 55.845 6.32461e-07 
585 1 0.285714 0.214286 0 55.845 -2.63648e-07 
590 1 0.285714 0.142857 0 55.845 -4.21077e-07 
591 1 0.321429 0.178571 0 55.845 -4.72998e-07 
592 1 0.357143 0.214286 0 55.845 -2.67782e-07 
598 1 0.357143 0.142857 0 55.845 -4.61431e-07 
319 1 0.392832 0.214192 0.209143 55.845 5.3291e-08 
321 1 0.428433 0.249962 0.208999 55.845 1.58104e-08 
331 1 0.392824 0.142775 0.209268 55.845 4.53436e-07 
333 1 0.428569 0.178578 0.209264 55.845 6.58421e-08 
335 1 0.464222 0.214345 0.209101 55.845 2.54728e-08 
345 1 0.464273 0.142832 0.209269 55.845 2.95114e-07 
606 1 0.464286 0.178571 0 55.845 -5.78444e-07 
421 1 0.392756 0.214215 0.126635 55.845 -5.94763e-07 
422 1 0.392799 0.25001 0.167988 55.845 4.7262e-08 
423 1 0.428483 0.25009 0.126499 55.845 -3.16738e-07 
433 1 0.392825 0.142756 0.126698 55.845 -6.38608e-07 
434 1 0.392794 0.178509 0.168113 55.845 -1.09348e-07 
435 1 0.428564 0.178528 0.126688 55.845 -3.3086e-07 
436 1 0.428567 0.214255 0.167936 55.845 -5.8106e-08 
437 1 0.464306 0.214232 0.126525 55.845 -3.51642e-07 
605 1 0.428571 0.142857 0 55.845 -4.49401e-07 
446 1 0.428523 0.142846 0.168166 55.845 -1.42788e-07 
447 1 0.464247 0.142902 0.126872 55.845 -4.61456e-07 
448 1 0.464241 0.178622 0.168023 55.845 -2.3518e-07 
523 1 0.392857 0.214286 0.0416667 55.845 3.39548e-07 
524 1 0.392809 0.24999 0.0842626 55.845 -3.64299e-08 
525 1 0.428571 0.25 0.0416667 55.845 1.06403e-07 
535 1 0.392857 0.142857 0.0416667 55.845 7.4989e-07 
536 1 0.39284 0.178541 0.0845163 55.845 4.77453e-07 
537 1 0.428571 0.178571 0.0416667 55.845 5.6155e-07 
538 1 0.428558 0.214343 0.0844026 55.845 3.75791e-07 
539 1 0.464286 0.214286 0.0416667 55.845 4.53014e-07 
548 1 0.428603 0.142864 0.0843801 55.845 5.05628e-07 
549 1 0.464286 0.142857 0.0416667 55.845 4.45784e-07 
550 1 0.464181 0.178539 0.0843344 55.845 3.657e-07 
593 1 0.392857 0.25 0 55.845 -4.62308e-07 
599 1 0.392857 0.178571 0 55.845 -1.15601e-07 
600 1 0.428571 0.214286 0 55.845 -2.78616e-07 
3 1 -9.70409e-07 0.107133 0.462953 55.845 -7.89888e-07 
7 1 -6.25033e-05 0.035627 0.463043 55.845 -5.58326e-07 
8 1 0.0356307 0.071396 0.463056 55.845 -5.64973e-07 
9 1 0.0714129 0.107226 0.463048 55.845 -8.28084e-07 
13 1 0.0356419 -7.62885e-05 0.462853 55.845 -5.84391e-07 
14 1 0.0713559 0.0356863 0.463013 55.845 -4.57219e-07 
15 1 0.107169 0.0715347 0.463032 55.845 -6.20501e-07 
20 1 0.107104 4.993e-05 0.463032 55.845 -4.3233e-07 
55 1 3.63636e-05 0.107107 0.379057 55.845 4.62525e-07 
63 1 -1.7418e-05 0.0356579 0.378978 55.845 4.14146e-07 
64 1 -3.60328e-05 0.0713012 0.420761 55.845 -3.51121e-08 
65 1 0.0357226 0.0714346 0.379089 55.845 5.76459e-07 
66 1 0.0357772 0.107171 0.420775 55.845 -1.57896e-07 
67 1 0.0713894 0.107094 0.379094 55.845 8.0449e-07 
74 1 -0.000101382 -2.80231e-05 0.420735 55.845 -8.30108e-08 
75 1 0.0356216 -3.04071e-05 0.378894 55.845 2.62021e-07 
76 1 0.0356906 0.0357057 0.420845 55.845 -9.78716e-08 
77 1 0.0715027 0.0355768 0.378868 55.845 3.73796e-07 
78 1 0.0714304 0.071383 0.42081 55.845 -9.88401e-08 
79 1 0.107086 0.0714685 0.379021 55.845 6.97508e-07 
80 1 0.107085 0.107205 0.420613 55.845 -1.99074e-07 
88 1 0.071477 2.73121e-05 0.420776 55.845 -2.78581e-08 
89 1 0.10728 6.73811e-06 0.37895 55.845 4.134e-07 
90 1 0.107263 0.035824 0.420887 55.845 -1.49604e-07 
157 1 2.558e-05 0.107169 0.295507 55.845 -6.90941e-07 
165 1 -8.39637e-05 0.0357315 0.295704 55.845 -4.38615e-07 
166 1 4.90057e-06 0.071369 0.33763 55.845 -2.83928e-08 
167 1 0.0357095 0.0715528 0.295627 55.845 -6.12455e-07 
168 1 0.0357754 0.107092 0.337686 55.845 1.30134e-07 
169 1 0.0715015 0.107145 0.295611 55.845 -4.25521e-07 
176 1 -1.96804e-05 -3.51919e-05 0.337677 55.845 4.73195e-07 
177 1 0.0357447 -0.000113245 0.295474 55.845 -1.6439e-07 
178 1 0.0357105 0.0357969 0.337607 55.845 6.91972e-08 
179 1 0.0714719 0.035774 0.295523 55.845 -3.78417e-07 
180 1 0.0713799 0.0714754 0.337826 55.845 2.95958e-07 
181 1 0.107064 0.0714938 0.295511 55.845 -2.06995e-07 
182 1 0.107065 0.10714 0.337791 55.845 2.32592e-07 
190 1 0.0714297 5.62087e-05 0.337499 55.845 1.32173e-07 
191 1 0.107176 -2.11637e-05 0.295632 55.845 -2.71063e-07 
192 1 0.107173 0.035778 0.337816 55.845 2.28273e-07 
268 1 -8.71855e-06 0.0714816 0.252252 55.845 -1.17851e-07 
270 1 0.0357158 0.107258 0.252248 55.845 2.09528e-07 
278 1 6.57148e-07 5.95245e-05 0.252304 55.845 2.73139e-07 
280 1 0.0357039 0.0357586 0.252343 55.845 -4.67347e-08 
282 1 0.0714056 0.0714133 0.252295 55.845 2.40565e-07 
284 1 0.107046 0.107181 0.252106 55.845 2.66672e-07 
292 1 0.0715155 6.16674e-05 0.252345 55.845 1.07319e-07 
294 1 0.107144 0.0357314 0.252231 55.845 1.49118e-07 
16 1 0.142874 0.107165 0.46291 55.845 -4.71947e-07 
21 1 0.142908 0.0356961 0.463036 55.845 -5.31148e-07 
22 1 0.178547 0.0714992 0.46293 55.845 -3.10478e-07 
23 1 0.214334 0.107042 0.463044 55.845 -4.17328e-07 
27 1 0.178527 -3.45635e-05 0.463024 55.845 -4.13123e-07 
28 1 0.214324 0.0357852 0.463034 55.845 -5.29447e-07 
29 1 0.249947 0.0714623 0.463125 55.845 -5.81491e-07 
81 1 0.142825 0.107195 0.379168 55.845 5.67517e-07 
91 1 0.142901 0.0356711 0.378878 55.845 4.5402e-07 
92 1 0.142799 0.0714093 0.420811 55.845 -1.37686e-07 
93 1 0.178599 0.0715119 0.379385 55.845 4.00089e-07 
94 1 0.178571 0.107216 0.42092 55.845 -1.88455e-07 
95 1 0.214264 0.107191 0.378937 55.845 2.83278e-07 
102 1 0.142834 -5.47961e-05 0.420938 55.845 -1.09012e-08 
103 1 0.178473 -7.23192e-05 0.378996 55.845 3.87903e-07 
104 1 0.178536 0.0357108 0.420897 55.845 -1.86812e-07 
105 1 0.214263 0.0356266 0.378998 55.845 2.35818e-07 
106 1 0.214312 0.0714524 0.420826 55.845 -1.07357e-07 
107 1 0.250004 0.0714019 0.378853 55.845 5.32258e-07 
108 1 0.249987 0.107116 0.420822 55.845 -6.91873e-08 
118 1 0.21421 3.6851e-05 0.420888 55.845 -1.21919e-07 
120 1 0.250047 0.0357825 0.420681 55.845 -8.58469e-08 
183 1 0.142766 0.1071 0.295713 55.845 -4.39872e-07 
193 1 0.142836 0.0357945 0.295364 55.845 -2.87652e-07 
194 1 0.14286 0.0713763 0.337746 55.845 2.52639e-07 
195 1 0.178594 0.0714377 0.295461 55.845 -3.81892e-07 
196 1 0.178602 0.107158 0.337699 55.845 1.58255e-07 
197 1 0.214295 0.107094 0.295541 55.845 -3.88208e-07 
204 1 0.142949 5.52147e-05 0.337512 55.845 1.91038e-07 
205 1 0.178572 5.09975e-05 0.295632 55.845 -1.72676e-07 
206 1 0.178581 0.0357078 0.337856 55.845 1.84755e-07 
207 1 0.214265 0.0356943 0.295491 55.845 -1.68982e-07 
208 1 0.214291 0.0713739 0.337666 55.845 1.98067e-07 
209 1 0.249954 0.0713358 0.295504 55.845 -6.24554e-07 
210 1 0.25 0.107085 0.33772 55.845 2.09603e-07 
220 1 0.214212 -6.91332e-05 0.337717 55.845 1.30038e-07 
222 1 0.249932 0.035665 0.337583 55.845 1.91455e-07 
296 1 0.142729 0.0715016 0.252265 55.845 1.45156e-07 
298 1 0.178561 0.106975 0.252327 55.845 -3.43425e-08 
306 1 0.142919 -2.66811e-05 0.252251 55.845 -2.67948e-08 
308 1 0.178603 0.0357364 0.252151 55.845 1.70172e-07 
310 1 0.214288 0.0714451 0.252209 55.845 -1.34162e-08 
312 1 0.250022 0.107149 0.252167 55.845 -1.36349e-08 
322 1 0.214307 3.08362e-05 0.252239 55.845 2.85667e-07 
324 1 0.249988 0.0356815 0.252119 55.845 -3.55207e-08 
30 1 0.285673 0.107043 0.462839 55.845 -6.58444e-07 
35 1 0.250024 9.13836e-05 0.462991 55.845 -6.73828e-07 
36 1 0.285689 0.0356979 0.462856 55.845 -7.30144e-07 
37 1 0.321373 0.0714433 0.463021 55.845 -8.67868e-07 
38 1 0.35722 0.107103 0.462924 55.845 -8.84111e-07 
42 1 0.321372 1.29244e-05 0.463041 55.845 -8.03735e-07 
43 1 0.357105 0.0356429 0.462848 55.845 -9.36195e-07 
109 1 0.285707 0.107168 0.378952 55.845 5.116e-07 
119 1 0.249942 -1.51807e-05 0.378944 55.845 5.08083e-07 
121 1 0.28569 0.0356617 0.378864 55.845 7.28846e-07 
122 1 0.285778 0.0714589 0.420904 55.845 -1.22463e-07 
123 1 0.321371 0.0714655 0.37887 55.845 7.79418e-07 
124 1 0.32141 0.107202 0.420785 55.845 -1.79403e-07 
125 1 0.357133 0.107079 0.379119 55.845 8.17785e-07 
133 1 0.321428 1.4221e-05 0.378845 55.845 6.87185e-07 
134 1 0.321456 0.0357797 0.420658 55.845 -1.02807e-07 
135 1 0.357179 0.035695 0.378767 55.845 7.91288e-07 
136 1 0.35716 0.0713899 0.42081 55.845 -1.22408e-07 
211 1 0.285699 0.107145 0.295634 55.845 -4.09025e-07 
221 1 0.249992 1.43246e-05 0.295545 55.845 -3.13884e-07 
223 1 0.285687 0.0356834 0.295533 55.845 -8.26111e-07 
224 1 0.285663 0.0714152 0.337699 55.845 2.39231e-07 
225 1 0.321398 0.0713999 0.295592 55.845 -6.63069e-07 
226 1 0.321324 0.107068 0.337663 55.845 2.20623e-07 
227 1 0.357126 0.106983 0.295459 55.845 -8.39365e-07 
235 1 0.321414 2.01786e-06 0.295424 55.845 -5.30927e-07 
236 1 0.32143 0.0356965 0.337513 55.845 1.61572e-07 
237 1 0.357172 0.035816 0.295325 55.845 -7.17571e-07 
238 1 0.357135 0.0714392 0.337652 55.845 3.40939e-07 
326 1 0.285764 0.0713726 0.252303 55.845 7.22829e-08 
328 1 0.321556 0.107075 0.25239 55.845 3.16862e-07 
338 1 0.321461 0.0356443 0.25214 55.845 1.24879e-07 
340 1 0.357198 0.0714057 0.252119 55.845 2.82666e-07 
44 1 0.392877 0.0713846 0.462917 55.845 -9.14909e-07 
45 1 0.428503 0.107064 0.462795 55.845 -7.87364e-07 
47 1 0.392777 -8.03667e-05 0.462854 55.845 -6.0635e-07 
48 1 0.428493 0.0356993 0.462887 55.845 -7.34391e-07 
49 1 0.464195 0.0714039 0.462957 55.845 -6.40233e-07 
50 1 0.464113 -2.43591e-05 0.462907 55.845 -3.89152e-07 
137 1 0.392911 0.0713884 0.37882 55.845 8.41516e-07 
138 1 0.392909 0.107126 0.420676 55.845 -3.14694e-08 
139 1 0.428608 0.107261 0.378703 55.845 5.65663e-07 
144 1 0.392854 -6.56662e-05 0.378999 55.845 4.04472e-07 
145 1 0.392813 0.035705 0.420717 55.845 -7.83774e-08 
146 1 0.4286 0.035711 0.378908 55.845 3.8597e-07 
147 1 0.428513 0.0714282 0.420762 55.845 -7.73691e-08 
148 1 0.464277 0.0714591 0.37878 55.845 2.96235e-07 
149 1 0.464255 0.107197 0.420678 55.845 2.28779e-08 
150 1 0.428514 -1.11565e-05 0.420676 55.845 -2.39552e-08 
151 1 0.464235 -8.49626e-05 0.378887 55.845 8.02794e-08 
152 1 0.46421 0.035703 0.420769 55.845 -5.29072e-08 
239 1 0.39288 0.0714226 0.295654 55.845 -6.0049e-07 
240 1 0.392857 0.107185 0.337447 55.845 8.74001e-08 
241 1 0.428664 0.107158 0.295358 55.845 -5.4713e-07 
246 1 0.392933 -6.86312e-05 0.295479 55.845 -5.1831e-07 
247 1 0.392901 0.0356536 0.337522 55.845 3.40972e-07 
248 1 0.428673 0.0356472 0.295629 55.845 -4.30579e-07 
249 1 0.428679 0.0714577 0.337635 55.845 4.80414e-07 
250 1 0.464257 0.0712894 0.295439 55.845 -4.20372e-07 
251 1 0.464181 0.107153 0.337409 55.845 2.4314e-07 
252 1 0.428527 1.95894e-05 0.337562 55.845 2.0579e-07 
253 1 0.46433 -1.68571e-06 0.295498 55.845 -1.71478e-07 
254 1 0.464303 0.0356746 0.337623 55.845 2.90179e-07 
342 1 0.392909 0.107023 0.252221 55.845 1.96483e-07 
349 1 0.392981 0.0357294 0.252223 55.845 2.3226e-07 
351 1 0.428623 0.0713778 0.252248 55.845 2.58274e-07 
353 1 0.464369 0.107141 0.252297 55.845 1.96336e-07 
354 1 0.428645 4.53796e-05 0.252207 55.845 -2.67107e-08 
356 1 0.46435 0.0357242 0.252171 55.845 -3.28615e-08 
1 1 -0.00017959 0.178579 0.46284 55.845 -7.35393e-07 
2 1 0.0356782 0.214212 0.463045 55.845 -6.06821e-07 
4 1 0.0356041 0.142813 0.462813 55.845 -9.03592e-07 
5 1 0.0713436 0.178613 0.462911 55.845 -6.5712e-07 
6 1 0.107166 0.214288 0.462928 55.845 -4.25821e-07 
10 1 0.107144 0.142839 0.463057 55.845 -6.09066e-07 
51 1 3.30766e-05 0.178596 0.378962 55.845 7.18065e-07 
52 1 -5.05893e-05 0.214256 0.420839 55.845 -1.85054e-07 
53 1 0.0357378 0.214269 0.378987 55.845 4.80118e-07 
54 1 0.0356582 0.24997 0.420795 55.845 -2.99272e-07 
56 1 -6.0362e-05 0.142811 0.42078 55.845 -6.83911e-08 
57 1 0.0357168 0.142878 0.379018 55.845 7.30492e-07 
58 1 0.035595 0.178567 0.420856 55.845 -9.50064e-08 
59 1 0.0713877 0.178627 0.379136 55.845 7.8117e-07 
60 1 0.0713638 0.214316 0.420858 55.845 -1.64061e-07 
61 1 0.107117 0.214277 0.378852 55.845 5.61633e-07 
62 1 0.107141 0.250005 0.420586 55.845 -2.60805e-07 
68 1 0.0713603 0.142962 0.420801 55.845 -1.4383e-07 
69 1 0.107068 0.142971 0.378981 55.845 6.38736e-07 
70 1 0.107172 0.178666 0.420792 55.845 -1.80162e-08 
153 1 -0.000115079 0.178515 0.29569 55.845 -3.16779e-07 
154 1 -0.000104958 0.214296 0.337504 55.845 5.0776e-08 
155 1 0.0356597 0.214124 0.295493 55.845 -3.53109e-07 
156 1 0.0356981 0.249938 0.337605 55.845 -3.11091e-08 
158 1 -2.22371e-05 0.142812 0.337696 55.845 1.10765e-07 
159 1 0.0358472 0.142854 0.295563 55.845 -3.26254e-07 
160 1 0.0356345 0.178492 0.337604 55.845 1.47454e-07 
161 1 0.0713821 0.178512 0.295337 55.845 -5.10123e-07 
162 1 0.0713502 0.214149 0.337589 55.845 -1.03824e-07 
163 1 0.107105 0.214203 0.295344 55.845 -3.7774e-07 
164 1 0.107161 0.249938 0.337495 55.845 1.10159e-07 
170 1 0.0713711 0.142906 0.337847 55.845 4.61513e-08 
171 1 0.107128 0.142854 0.295573 55.845 -6.61073e-07 
172 1 0.107041 0.178524 0.33759 55.845 -8.87176e-08 
256 1 -2.79228e-05 0.214206 0.252235 55.845 2.40037e-07 
258 1 0.0357193 0.249955 0.252326 55.845 -9.22809e-09 
260 1 6.69603e-05 0.142849 0.252258 55.845 2.61135e-07 
262 1 0.0356343 0.178445 0.252159 55.845 3.20116e-07 
264 1 0.0714174 0.214293 0.252252 55.845 -2.80919e-08 
266 1 0.107115 0.250016 0.252231 55.845 6.24906e-08 
272 1 0.0714158 0.14289 0.252224 55.845 1.36891e-07 
274 1 0.107092 0.178491 0.252249 55.845 -2.37551e-08 
11 1 0.142877 0.178589 0.462893 55.845 -4.1672e-07 
12 1 0.178562 0.2143 0.462891 55.845 -5.15959e-07 
17 1 0.178578 0.142974 0.46287 55.845 -3.48241e-07 
18 1 0.214258 0.178424 0.462943 55.845 -3.06915e-07 
19 1 0.250055 0.214294 0.462976 55.845 -4.13006e-07 
24 1 0.249974 0.142783 0.462855 55.845 -4.38591e-07 
71 1 0.142884 0.17873 0.378776 55.845 4.54776e-07 
72 1 0.142854 0.214337 0.420679 55.845 -1.85391e-07 
73 1 0.178592 0.21434 0.378606 55.845 3.65549e-07 
82 1 0.142834 0.143032 0.420765 55.845 -2.82229e-07 
83 1 0.178485 0.142965 0.379038 55.845 2.56864e-07 
84 1 0.178492 0.178679 0.420785 55.845 -2.59122e-07 
85 1 0.214258 0.178534 0.378897 55.845 2.4965e-07 
86 1 0.214233 0.214183 0.420751 55.845 1.6671e-08 
87 1 0.250026 0.214346 0.378944 55.845 2.03994e-07 
96 1 0.214295 0.142913 0.420764 55.845 -6.16885e-08 
97 1 0.24997 0.142846 0.378943 55.845 3.88779e-07 
98 1 0.249921 0.178566 0.420794 55.845 3.24054e-08 
173 1 0.142846 0.17842 0.295534 55.845 -3.78787e-07 
174 1 0.142835 0.214288 0.33757 55.845 2.13847e-07 
175 1 0.178537 0.214223 0.295439 55.845 -1.08489e-07 
184 1 0.142872 0.142822 0.337822 55.845 9.22423e-08 
185 1 0.178587 0.142739 0.295482 55.845 -2.78638e-07 
186 1 0.178613 0.178563 0.337548 55.845 1.8088e-07 
187 1 0.214281 0.178575 0.295546 55.845 -4.25101e-08 
188 1 0.214375 0.214236 0.337537 55.845 1.19834e-07 
189 1 0.249902 0.214324 0.295395 55.845 -3.15645e-07 
198 1 0.214249 0.142843 0.337732 55.845 2.57183e-07 
199 1 0.249916 0.142852 0.295539 55.845 -1.27057e-07 
200 1 0.249997 0.178619 0.337697 55.845 2.46582e-07 
276 1 0.142853 0.214263 0.252271 55.845 1.05238e-07 
286 1 0.142844 0.142782 0.252162 55.845 -4.71185e-08 
288 1 0.178582 0.178481 0.252212 55.845 -8.26259e-08 
290 1 0.21423 0.214277 0.252197 55.845 1.19552e-07 
300 1 0.214311 0.142811 0.252292 55.845 9.5211e-08 
302 1 0.249928 0.178615 0.252174 55.845 2.58758e-07 
25 1 0.285769 0.178463 0.462806 55.845 -5.92347e-07 
26 1 0.321417 0.214213 0.462981 55.845 -5.47173e-07 
31 1 0.321351 0.14288 0.462983 55.845 -6.37473e-07 
32 1 0.357114 0.178556 0.46293 55.845 -4.79537e-07 
99 1 0.285658 0.178642 0.378961 55.845 4.33039e-07 
100 1 0.285714 0.214253 0.420868 55.845 -1.01606e-07 
101 1 0.3214 0.214316 0.379058 55.845 3.788e-07 
110 1 0.285738 0.142858 0.420681 55.845 -9.96265e-08 
111 1 0.32143 0.142856 0.378979 55.845 6.09401e-07 
112 1 0.321411 0.178575 0.420702 55.845 -2.06109e-08 
113 1 0.357167 0.178525 0.378834 55.845 4.58402e-07 
114 1 0.35715 0.214274 0.420862 55.845 -3.42779e-08 
126 1 0.357206 0.142822 0.420747 55.845 6.64972e-08 
201 1 0.285643 0.1787 0.29565 55.845 -1.00337e-07 
202 1 0.285678 0.214323 0.337453 55.845 9.4808e-08 
203 1 0.321331 0.214322 0.295422 55.845 -2.34858e-07 
212 1 0.285667 0.14289 0.337631 55.845 3.47755e-07 
213 1 0.321468 0.142951 0.29567 55.845 -4.9149e-07 
214 1 0.321352 0.178726 0.337713 55.845 2.434e-07 
215 1 0.35709 0.178598 0.295604 55.845 -4.24063e-07 