ITEM: TIMESTEP
9000
ITEM: NUMBER OF ATOMS
5880
ITEM: BOX BOUNDS pp pp ff
-27.9263 27.9263
-27.9263 27.9263
0 34.092
ITEM: ATOMS id type xs ys zs mass q 
259 1 -0.000131958 0.107169 0.211992 55.845 -2.90941e-08 
267 1 -6.31959e-06 0.0354974 0.21205 55.845 2.48625e-07 
269 1 0.0355577 0.0715178 0.211995 55.845 -5.79624e-08 
271 1 0.0713251 0.107141 0.212032 55.845 -2.89003e-07 
279 1 0.0356442 -2.55283e-05 0.211809 55.845 3.09697e-07 
281 1 0.0715018 0.0358424 0.212095 55.845 7.38916e-08 
283 1 0.107116 0.0715419 0.212038 55.845 -2.56235e-07 
293 1 0.107173 7.67262e-05 0.211922 55.845 8.20163e-08 
361 1 -4.55074e-05 0.10721 0.126628 55.845 4.08063e-08 
369 1 -2.75041e-05 0.0358549 0.126546 55.845 5.1604e-08 
370 1 -0.000110731 0.0714154 0.169265 55.845 1.23268e-07 
371 1 0.035716 0.0714069 0.126568 55.845 -1.93405e-08 
372 1 0.0356145 0.107068 0.169193 55.845 5.4042e-07 
373 1 0.0713486 0.10707 0.126636 55.845 -2.26234e-07 
380 1 -0.000112676 -2.33818e-05 0.169319 55.845 -5.35474e-08 
381 1 0.0356068 6.14448e-05 0.126518 55.845 2.67538e-07 
382 1 0.0356795 0.0358273 0.169299 55.845 6.36393e-08 
383 1 0.0714786 0.0357631 0.126733 55.845 8.62709e-08 
384 1 0.0714105 0.0714829 0.169257 55.845 3.60617e-07 
385 1 0.107177 0.0714118 0.126688 55.845 -4.46023e-08 
386 1 0.107172 0.107193 0.169316 55.845 5.32804e-07 
394 1 0.0714508 1.54803e-06 0.169247 55.845 3.48386e-08 
395 1 0.107089 6.86668e-05 0.126738 55.845 1.58761e-07 
396 1 0.107233 0.0356893 0.169289 55.845 1.59416e-07 
463 1 0 0.107143 0.0416667 55.845 -5.18577e-07 
471 1 0 0.0357143 0.0416667 55.845 -5.85883e-07 
472 1 -0.000119894 0.0713872 0.0839855 55.845 3.70128e-07 
473 1 0.0357143 0.0714286 0.0416667 55.845 -4.11928e-07 
474 1 0.0355611 0.107041 0.0840119 55.845 3.99365e-07 
475 1 0.0714286 0.107143 0.0416667 55.845 -4.71807e-07 
482 1 -3.12098e-05 -7.01155e-05 0.0840769 55.845 2.06116e-07 
483 1 0.0357143 0 0.0416667 55.845 -6.23252e-07 
484 1 0.0356356 0.0356546 0.0841655 55.845 2.82791e-07 
485 1 0.0714286 0.0357143 0.0416667 55.845 -5.7736e-07 
486 1 0.0714648 0.071419 0.0841327 55.845 3.76149e-07 
487 1 0.107143 0.0714286 0.0416667 55.845 -6.00051e-07 
488 1 0.107119 0.107222 0.0840026 55.845 5.27851e-07 
496 1 0.0713846 -3.71816e-05 0.0839302 55.845 2.76765e-07 
497 1 0.107143 0 0.0416667 55.845 -7.03433e-07 
498 1 0.107218 0.0357105 0.0841397 55.845 4.69082e-07 
567 1 0 0.0714286 0 55.845 -1.38436e-07 
568 1 0.0357143 0.107143 0 55.845 1.04798e-07 
572 1 0 0 0 55.845 2.11909e-07 
573 1 0.0357143 0.0357143 0 55.845 1.52249e-07 
574 1 0.0714286 0.0714286 0 55.845 2.64303e-08 
575 1 0.107143 0.107143 0 55.845 3.28743e-07 
579 1 0.0714286 0 0 55.845 1.82296e-07 
580 1 0.107143 0.0357143 0 55.845 3.19934e-07 
285 1 0.14282 0.107052 0.212073 55.845 -3.14395e-07 
295 1 0.142929 0.0357381 0.212149 55.845 -7.18013e-08 
297 1 0.178616 0.0715065 0.21196 55.845 -1.97284e-07 
299 1 0.214368 0.10709 0.212107 55.845 -2.16696e-07 
307 1 0.178547 -2.09838e-05 0.212196 55.845 8.50442e-08 
309 1 0.21434 0.0356227 0.212111 55.845 -6.69443e-08 
311 1 0.250041 0.071427 0.212309 55.845 -7.67717e-08 
387 1 0.142672 0.107167 0.126443 55.845 -3.88032e-07 
397 1 0.142987 0.0356758 0.126718 55.845 -1.49084e-07 
398 1 0.142837 0.0714737 0.16931 55.845 4.46643e-07 
399 1 0.178569 0.0714797 0.126536 55.845 -2.04848e-07 
400 1 0.178566 0.107157 0.169414 55.845 4.49069e-07 
401 1 0.214286 0.107112 0.126519 55.845 -1.61499e-07 
408 1 0.14288 4.21855e-06 0.169216 55.845 2.24452e-08 
409 1 0.178476 3.8186e-06 0.126609 55.845 -1.14671e-07 
410 1 0.178747 0.0357097 0.169221 55.845 2.59012e-07 
411 1 0.214434 0.0356395 0.126589 55.845 -2.10006e-07 
412 1 0.214254 0.0713814 0.169295 55.845 2.77936e-07 
413 1 0.249962 0.0714079 0.126722 55.845 -2.647e-07 
414 1 0.249948 0.107149 0.169347 55.845 3.28188e-07 
424 1 0.214291 -2.49499e-05 0.169345 55.845 1.30785e-07 
426 1 0.250018 0.0357051 0.169545 55.845 3.41524e-07 
489 1 0.142857 0.107143 0.0416667 55.845 -8.49027e-07 
499 1 0.142857 0.0357143 0.0416667 55.845 -6.1042e-07 
500 1 0.14273 0.0715397 0.0840513 55.845 5.5599e-07 
501 1 0.178571 0.0714286 0.0416667 55.845 -4.30732e-07 
502 1 0.178532 0.107238 0.0842253 55.845 5.08381e-07 
503 1 0.214286 0.107143 0.0416667 55.845 -6.13454e-07 
510 1 0.142784 5.80232e-05 0.0839484 55.845 3.40146e-07 
511 1 0.178571 0 0.0416667 55.845 -5.2049e-07 
512 1 0.17861 0.035752 0.0839853 55.845 5.97245e-07 
513 1 0.214286 0.0357143 0.0416667 55.845 -5.15271e-07 
514 1 0.21428 0.0714518 0.0841087 55.845 4.56812e-07 
515 1 0.25 0.0714286 0.0416667 55.845 -4.80909e-07 
516 1 0.249984 0.107187 0.0842586 55.845 5.543e-07 
526 1 0.214265 -3.31194e-05 0.084062 55.845 4.72412e-07 
528 1 0.249987 0.0357637 0.0840828 55.845 6.17064e-07 
581 1 0.142857 0.0714286 0 55.845 1.36484e-07 
582 1 0.178571 0.107143 0 55.845 6.94515e-08 
586 1 0.142857 0 0 55.845 3.54654e-07 
587 1 0.178571 0.0357143 0 55.845 -4.27758e-09 
588 1 0.214286 0.0714286 0 55.845 5.21527e-08 
589 1 0.25 0.107143 0 55.845 3.33706e-07 
594 1 0.214286 0 0 55.845 -2.84072e-08 
595 1 0.25 0.0357143 0 55.845 3.04516e-09 
313 1 0.285617 0.107095 0.211992 55.845 -1.5277e-07 
323 1 0.250004 -1.58037e-06 0.212081 55.845 -1.63367e-07 
325 1 0.285777 0.0356599 0.212108 55.845 -8.8036e-08 
327 1 0.321341 0.0713974 0.211993 55.845 -1.93163e-07 
329 1 0.357188 0.107131 0.211949 55.845 -4.6167e-07 
337 1 0.321435 4.99786e-05 0.212124 55.845 -1.15071e-07 
339 1 0.357155 0.0356859 0.21218 55.845 -2.13325e-07 
415 1 0.285714 0.10717 0.126675 55.845 -3.63611e-07 
425 1 0.250061 -2.10999e-05 0.126511 55.845 -8.46735e-08 
427 1 0.285712 0.0356527 0.126573 55.845 -2.79936e-07 
428 1 0.285631 0.0713833 0.169126 55.845 4.69507e-07 
429 1 0.32144 0.0713954 0.126592 55.845 -3.32603e-07 
430 1 0.321338 0.107068 0.169251 55.845 7.36982e-07 
431 1 0.357113 0.107194 0.12665 55.845 -2.84741e-07 
439 1 0.321497 -5.05042e-05 0.126446 55.845 -1.43745e-07 
440 1 0.321444 0.0356965 0.16923 55.845 5.84513e-07 
441 1 0.35718 0.0356599 0.126538 55.845 -2.12083e-07 
442 1 0.357108 0.071331 0.169238 55.845 4.6964e-07 
517 1 0.285714 0.107143 0.0416667 55.845 -9.43823e-07 
527 1 0.25 0 0.0416667 55.845 -5.44841e-07 
529 1 0.285714 0.0357143 0.0416667 55.845 -6.99856e-07 
530 1 0.285769 0.0713637 0.0841582 55.845 6.20996e-07 
531 1 0.321429 0.0714286 0.0416667 55.845 -8.09095e-07 
532 1 0.321385 0.107172 0.0839978 55.845 6.57365e-07 
533 1 0.357143 0.107143 0.0416667 55.845 -8.7554e-07 
603 1 0.357143 0.0714286 0 55.845 2.60455e-07 
541 1 0.321429 0 0.0416667 55.845 -7.3221e-07 
542 1 0.321498 0.0356516 0.0840731 55.845 7.22396e-07 
543 1 0.357143 0.0357143 0.0416667 55.845 -6.62427e-07 
544 1 0.357153 0.0714118 0.0841984 55.845 5.6142e-07 
602 1 0.321429 0.0357143 0 55.845 2.38228e-07 
596 1 0.285714 0.0714286 0 55.845 3.36885e-07 
597 1 0.321429 0.107143 0 55.845 4.03637e-07 
612 1 0.464286 0.0357143 0 55.845 6.73475e-08 
611 1 0.428571 0 0 55.845 5.40528e-08 
610 1 0.464286 0.107143 0 55.845 2.43998e-07 
609 1 0.428571 0.0714286 0 55.845 1.42264e-07 
608 1 0.392857 0.0357143 0 55.845 9.7753e-08 
341 1 0.392868 0.0714877 0.212133 55.845 -7.41964e-08 
343 1 0.428569 0.107091 0.212051 55.845 -3.22306e-08 
348 1 0.392845 -5.96298e-05 0.212295 55.845 -6.89607e-08 
350 1 0.42847 0.0357022 0.212214 55.845 6.4885e-08 
352 1 0.464365 0.0713845 0.211846 55.845 3.75077e-07 
355 1 0.4643 -7.86067e-05 0.212056 55.845 5.08546e-07 
443 1 0.392861 0.0712897 0.126729 55.845 -1.80573e-07 
444 1 0.392849 0.107071 0.169402 55.845 4.59797e-07 
445 1 0.428459 0.107111 0.126611 55.845 -4.43685e-08 
604 1 0.392857 0.107143 0 55.845 2.64745e-07 
450 1 0.39279 5.9538e-05 0.126733 55.845 -4.11517e-08 
451 1 0.392815 0.0357463 0.169543 55.845 9.38006e-08 
452 1 0.42854 0.0357625 0.126642 55.845 2.15779e-07 
453 1 0.428605 0.0713189 0.169475 55.845 -1.17071e-07 
454 1 0.464233 0.0713846 0.126564 55.845 2.44688e-07 
455 1 0.464323 0.107026 0.169348 55.845 1.13155e-07 
456 1 0.428521 -7.0607e-06 0.169469 55.845 -1.65229e-07 
457 1 0.464229 0.00017779 0.126596 55.845 4.30495e-07 
458 1 0.464133 0.0357148 0.169377 55.845 -3.27274e-07 
545 1 0.392857 0.0714286 0.0416667 55.845 -6.62702e-07 
546 1 0.392824 0.107174 0.0839808 55.845 5.19677e-07 
547 1 0.428571 0.107143 0.0416667 55.845 -8.06855e-07 
552 1 0.392857 0 0.0416667 55.845 -3.67531e-07 
553 1 0.392909 0.0357246 0.0839906 55.845 3.12709e-07 
554 1 0.428571 0.0357143 0.0416667 55.845 -4.54e-07 
555 1 0.428567 0.0714952 0.084129 55.845 3.34882e-07 
556 1 0.464286 0.0714286 0.0416667 55.845 -5.76408e-07 
557 1 0.464202 0.107097 0.0840196 55.845 4.51893e-07 
558 1 0.42851 0.000113237 0.0842262 55.845 6.9828e-08 
559 1 0.464286 0 0.0416667 55.845 -3.28093e-07 
560 1 0.464239 0.0357062 0.0839652 55.845 -2.47877e-08 
255 1 -1.40553e-05 0.178708 0.212442 55.845 -1.73931e-07 
257 1 0.035658 0.214389 0.211967 55.845 -2.16665e-07 
261 1 0.0355736 0.142849 0.212159 55.845 -3.88757e-07 
263 1 0.0713673 0.178481 0.2121 55.845 -3.20395e-07 
265 1 0.107032 0.214257 0.211863 55.845 -2.71402e-07 
273 1 0.10716 0.14278 0.212039 55.845 -3.44561e-07 
357 1 -5.30651e-05 0.178533 0.126724 55.845 9.0257e-08 
358 1 2.1567e-05 0.214231 0.169201 55.845 1.71565e-07 
359 1 0.035751 0.21429 0.126442 55.845 -1.24822e-07 
360 1 0.0357376 0.250072 0.169202 55.845 6.1445e-07 
362 1 -6.95228e-06 0.142873 0.169406 55.845 1.54097e-07 
363 1 0.0355825 0.142817 0.1266 55.845 -9.4305e-08 
364 1 0.0356462 0.178505 0.169331 55.845 5.52537e-07 
365 1 0.0713784 0.178534 0.126898 55.845 -6.33092e-08 
366 1 0.0714923 0.214376 0.169118 55.845 6.18694e-07 
367 1 0.107142 0.214301 0.126533 55.845 -4.64847e-08 
368 1 0.107124 0.25004 0.169368 55.845 4.75917e-07 
374 1 0.0713981 0.142843 0.169325 55.845 6.59046e-07 
375 1 0.107068 0.142865 0.126513 55.845 -2.68007e-07 
376 1 0.1071 0.178584 0.169399 55.845 6.33261e-07 
459 1 0 0.178571 0.0416667 55.845 -7.36756e-07 
460 1 -1.13526e-05 0.214351 0.0838603 55.845 6.59243e-07 
461 1 0.0357143 0.214286 0.0416667 55.845 -7.74912e-07 
462 1 0.0357003 0.250096 0.0838579 55.845 5.12212e-07 
464 1 4.75887e-06 0.142967 0.0840509 55.845 6.23368e-07 
465 1 0.0357143 0.142857 0.0416667 55.845 -5.48027e-07 
466 1 0.0357709 0.178623 0.0840783 55.845 5.38559e-07 
467 1 0.0714286 0.178571 0.0416667 55.845 -7.19094e-07 
468 1 0.0714385 0.214347 0.084151 55.845 5.40116e-07 
469 1 0.107143 0.214286 0.0416667 55.845 -8.24121e-07 
470 1 0.107229 0.249966 0.0841156 55.845 3.93524e-07 
476 1 0.0714622 0.142792 0.084078 55.845 5.75551e-07 
477 1 0.107143 0.142857 0.0416667 55.845 -1.00564e-06 
478 1 0.107158 0.178565 0.084116 55.845 3.99019e-07 
561 1 0 0.214286 0 55.845 5.82387e-08 
562 1 0.0357143 0.25 0 55.845 4.20464e-08 
563 1 0 0.142857 0 55.845 3.17689e-08 
564 1 0.0357143 0.178571 0 55.845 3.32128e-07 
565 1 0.0714286 0.214286 0 55.845 1.72694e-07 
566 1 0.107143 0.25 0 55.845 2.47203e-07 
569 1 0.0714286 0.142857 0 55.845 2.37934e-07 
570 1 0.107143 0.178571 0 55.845 4.92901e-07 
275 1 0.142696 0.178575 0.211815 55.845 -2.5107e-07 
277 1 0.17849 0.214254 0.21199 55.845 -1.16134e-07 
287 1 0.178543 0.142668 0.211934 55.845 -3.52837e-07 
289 1 0.214145 0.178576 0.212193 55.845 -1.80411e-07 
291 1 0.249914 0.214339 0.212026 55.845 1.01874e-07 
301 1 0.25005 0.142866 0.21221 55.845 -8.13037e-08 
377 1 0.142972 0.178719 0.126647 55.845 -2.58994e-07 
378 1 0.142815 0.214267 0.169353 55.845 4.90325e-07 
379 1 0.178629 0.214379 0.12634 55.845 -6.64703e-08 
388 1 0.142814 0.142759 0.169289 55.845 6.50258e-07 
389 1 0.178484 0.142864 0.126713 55.845 -4.47146e-07 
390 1 0.178578 0.178626 0.169238 55.845 5.5103e-07 
391 1 0.214285 0.178632 0.126757 55.845 -8.06758e-08 
392 1 0.214192 0.21423 0.16929 55.845 1.20952e-07 
393 1 0.249958 0.214339 0.126668 55.845 -2.02262e-07 
402 1 0.214289 0.142925 0.169453 55.845 2.98389e-07 
403 1 0.250007 0.142852 0.126727 55.845 -4.28434e-07 
404 1 0.249939 0.178546 0.169331 55.845 3.87819e-07 
479 1 0.142857 0.178571 0.0416667 55.845 -8.5418e-07 
480 1 0.142893 0.214311 0.0838972 55.845 5.18363e-07 
481 1 0.178571 0.214286 0.0416667 55.845 -4.84013e-07 
490 1 0.142875 0.14286 0.0840078 55.845 5.07725e-07 
491 1 0.178571 0.142857 0.0416667 55.845 -7.60028e-07 
492 1 0.178617 0.178493 0.0839899 55.845 2.81054e-07 
493 1 0.214286 0.178571 0.0416667 55.845 -5.43659e-07 
494 1 0.214164 0.214294 0.0840916 55.845 3.30403e-07 
495 1 0.25 0.214286 0.0416667 55.845 -5.83209e-07 
504 1 0.214319 0.142918 0.0841841 55.845 4.96598e-07 
505 1 0.25 0.142857 0.0416667 55.845 -6.4324e-07 
506 1 0.250014 0.178531 0.0841992 55.845 4.59031e-07 
571 1 0.142857 0.214286 0 55.845 3.41495e-07 
576 1 0.142857 0.142857 0 55.845 2.39826e-07 
577 1 0.178571 0.178571 0 55.845 3.43366e-07 
578 1 0.214286 0.214286 0 55.845 1.70989e-07 
583 1 0.214286 0.142857 0 55.845 3.28326e-07 
584 1 0.25 0.178571 0 55.845 3.46907e-07 
303 1 0.285794 0.178642 0.212001 55.845 -2.98377e-07 
305 1 0.321359 0.214346 0.212016 55.845 -3.33481e-07 
315 1 0.321426 0.142936 0.211995 55.845 -4.05275e-07 
317 1 0.35713 0.178644 0.212014 55.845 -5.60221e-07 
405 1 0.285689 0.178632 0.126691 55.845 -3.23958e-07 
406 1 0.285619 0.214243 0.169211 55.845 4.39673e-07 
407 1 0.321481 0.214243 0.126632 55.845 -3.18764e-07 
416 1 0.285648 0.142855 0.169232 55.845 6.23933e-07 
417 1 0.321431 0.14286 0.126688 55.845 -5.0372e-07 
418 1 0.321365 0.178628 0.169375 55.845 9.32213e-07 
419 1 0.357103 0.17854 0.12657 55.845 -3.34054e-07 
420 1 0.357194 0.214352 0.169155 55.845 8.17266e-07 
432 1 0.357152 0.142806 0.169284 55.845 9.17631e-07 
507 1 0.285714 0.178571 0.0416667 55.845 -7.64791e-07 
508 1 0.28572 0.214323 0.0839795 55.845 5.58196e-07 
509 1 0.321429 0.214286 0.0416667 55.845 -6.74346e-07 
518 1 0.285674 0.142875 0.084074 55.845 7.06285e-07 
519 1 0.321429 0.142857 0.0416667 55.845 -8.65276e-07 
520 1 0.321379 0.178615 0.0841477 55.845 5.88076e-07 
521 1 0.357143 0.178571 0.0416667 55.845 -7.96723e-07 
522 1 0.357133 0.214258 0.083886 55.845 7.43693e-07 
534 1 0.357145 0.142844 0.0840031 55.845 6.24527e-07 
585 1 0.285714 0.214286 0 55.845 2.57325e-07 
590 1 0.285714 0.142857 0 55.845 4.27591e-07 
591 1 0.321429 0.178571 0 55.845 4.11106e-07 
592 1 0.357143 0.214286 0 55.845 3.0693e-07 
598 1 0.357143 0.142857 0 55.845 3.02351e-07 
319 1 0.392889 0.214384 0.211952 55.845 -4.84138e-07 
321 1 0.428541 0.24997 0.212189 55.845 -3.12804e-07 
331 1 0.392937 0.142911 0.211881 55.845 -4.29439e-07 
333 1 0.42864 0.178508 0.211995 55.845 -4.82208e-07 
335 1 0.464308 0.214234 0.212189 55.845 -4.14022e-07 
345 1 0.464263 0.142907 0.212008 55.845 -1.48428e-07 
606 1 0.464286 0.178571 0 55.845 1.05241e-07 
421 1 0.392751 0.214173 0.126589 55.845 -3.89912e-07 
422 1 0.39283 0.250103 0.169348 55.845 4.8772e-07 
423 1 0.428461 0.249979 0.126614 55.845 -2.62777e-07 
433 1 0.392841 0.142839 0.126593 55.845 -3.45067e-07 
434 1 0.392891 0.178506 0.169338 55.845 8.42358e-07 
435 1 0.428624 0.17849 0.12656 55.845 -2.96772e-07 
436 1 0.428622 0.214291 0.169359 55.845 6.79727e-07 
437 1 0.464184 0.214186 0.12657 55.845 -4.0249e-07 
605 1 0.428571 0.142857 0 55.845 2.06288e-07 
446 1 0.428664 0.142796 0.169247 55.845 4.72675e-07 
447 1 0.464315 0.142683 0.126534 55.845 -7.004e-08 
448 1 0.464336 0.178519 0.169163 55.845 5.71594e-07 
523 1 0.392857 0.214286 0.0416667 55.845 -8.34069e-07 
524 1 0.392982 0.249999 0.0840011 55.845 8.17861e-07 
525 1 0.428571 0.25 0.0416667 55.845 -9.27474e-07 
535 1 0.392857 0.142857 0.0416667 55.845 -8.04452e-07 
536 1 0.392882 0.178502 0.083983 55.845 7.24295e-07 
537 1 0.428571 0.178571 0.0416667 55.845 -8.28076e-07 
538 1 0.428557 0.214322 0.0839937 55.845 7.9621e-07 
539 1 0.464286 0.214286 0.0416667 55.845 -7.34436e-07 
548 1 0.428511 0.142942 0.0839805 55.845 6.99624e-07 
549 1 0.464286 0.142857 0.0416667 55.845 -6.83841e-07 
550 1 0.464351 0.178692 0.084147 55.845 7.3976e-07 
593 1 0.392857 0.25 0 55.845 2.77786e-07 
599 1 0.392857 0.178571 0 55.845 1.43652e-07 
600 1 0.428571 0.214286 0 55.845 1.0441e-07 
3 1 -4.38268e-05 0.10712 0.46444 55.845 6.42595e-07 
7 1 4.05578e-06 0.0357584 0.464748 55.845 9.33078e-07 
8 1 0.0356335 0.071417 0.464587 55.845 8.5819e-07 
9 1 0.0714603 0.107038 0.464698 55.845 7.51621e-07 
13 1 0.0357168 0.000183246 0.464513 55.845 9.6367e-07 
14 1 0.0713958 0.0357055 0.464692 55.845 9.88228e-07 
15 1 0.107124 0.0713342 0.464804 55.845 8.58922e-07 
20 1 0.107123 -6.70412e-05 0.464707 55.845 8.59156e-07 
55 1 1.07451e-05 0.107117 0.381695 55.845 5.65186e-07 
63 1 -3.69044e-05 0.0357293 0.381687 55.845 9.91452e-07 
64 1 -6.13161e-05 0.0713909 0.423873 55.845 -7.23253e-07 
65 1 0.0357679 0.0713192 0.381829 55.845 6.47717e-07 
66 1 0.0356806 0.107149 0.424081 55.845 -3.58366e-07 
67 1 0.0715067 0.10698 0.381765 55.845 4.63794e-07 
74 1 2.96613e-05 2.26476e-06 0.424077 55.845 -8.03815e-07 
75 1 0.0356759 -9.4529e-05 0.381769 55.845 8.09228e-07 
76 1 0.0357111 0.035641 0.423874 55.845 -7.5539e-07 
77 1 0.0714697 0.0356031 0.381708 55.845 8.30808e-07 
78 1 0.0714786 0.0713772 0.423875 55.845 -6.13351e-07 
79 1 0.107169 0.0715229 0.3819 55.845 6.93745e-07 
80 1 0.107225 0.107149 0.424016 55.845 -5.35611e-07 
88 1 0.0714585 -5.70403e-05 0.423951 55.845 -7.81943e-07 
89 1 0.107144 -6.18796e-05 0.381773 55.845 8.06822e-07 
90 1 0.107253 0.0356967 0.423937 55.845 -6.99709e-07 
157 1 -9.24436e-05 0.107204 0.295558 55.845 1.11561e-06 
165 1 -6.13543e-05 0.0356573 0.295332 55.845 1.14996e-06 
166 1 1.72522e-06 0.0713806 0.33853 55.845 -1.06338e-06 
167 1 0.0357193 0.0714188 0.295417 55.845 1.17646e-06 
168 1 0.0358002 0.107067 0.338344 55.845 -8.40312e-07 
169 1 0.0714151 0.107114 0.295267 55.845 9.51692e-07 
176 1 -9.90156e-05 -4.68046e-05 0.338567 55.845 -1.1472e-06 
177 1 0.0356273 -9.24919e-05 0.295473 55.845 1.04426e-06 
178 1 0.0356336 0.0356924 0.338246 55.845 -1.02726e-06 
179 1 0.0715534 0.0357191 0.295375 55.845 8.5305e-07 
180 1 0.0714643 0.0713257 0.338377 55.845 -8.20378e-07 
181 1 0.107111 0.0714109 0.295222 55.845 9.14608e-07 
182 1 0.107166 0.107112 0.338282 55.845 -6.90813e-07 
190 1 0.0713374 -1.29177e-05 0.338258 55.845 -8.27693e-07 
191 1 0.107186 0.000179774 0.295306 55.845 7.3246e-07 
192 1 0.107112 0.0357928 0.338409 55.845 -9.3581e-07 
268 1 -2.9005e-05 0.0713979 0.253654 55.845 -6.88565e-07 
270 1 0.0355993 0.107085 0.25361 55.845 -5.94599e-07 
278 1 2.86542e-05 -0.000112281 0.253588 55.845 -7.90183e-07 
280 1 0.0356879 0.0356786 0.253895 55.845 -5.06362e-07 
282 1 0.07136 0.0714091 0.253815 55.845 -5.36008e-07 
284 1 0.107056 0.107194 0.253611 55.845 -4.7503e-07 
292 1 0.0712815 8.77003e-05 0.253656 55.845 -7.3239e-07 
294 1 0.107221 0.0358033 0.253695 55.845 -5.34983e-07 
16 1 0.14287 0.10716 0.464727 55.845 8.72096e-07 
21 1 0.142953 0.0356891 0.464582 55.845 8.66323e-07 
22 1 0.178662 0.0714567 0.464883 55.845 1.00219e-06 
23 1 0.214292 0.107225 0.464729 55.845 1.26844e-06 
27 1 0.178563 -6.9796e-05 0.464902 55.845 8.6038e-07 
28 1 0.214295 0.0357331 0.464691 55.845 9.60398e-07 
29 1 0.249983 0.0714792 0.464625 55.845 1.40619e-06 
81 1 0.142915 0.107108 0.381776 55.845 6.71066e-07 
91 1 0.142959 0.0357342 0.38179 55.845 8.26899e-07 
92 1 0.142828 0.0714262 0.424117 55.845 -6.36467e-07 
93 1 0.17848 0.0714177 0.381987 55.845 7.58766e-07 
94 1 0.178565 0.107234 0.42414 55.845 -8.307e-07 
95 1 0.214393 0.10721 0.381847 55.845 1.05347e-06 
102 1 0.142751 -4.51156e-05 0.423896 55.845 -6.06003e-07 
103 1 0.178653 -8.49631e-05 0.381736 55.845 6.89381e-07 
104 1 0.178602 0.0355575 0.424002 55.845 -7.18237e-07 
105 1 0.214318 0.035793 0.38177 55.845 8.23668e-07 
106 1 0.214309 0.0714745 0.423785 55.845 -7.78111e-07 
107 1 0.249949 0.0714861 0.381737 55.845 1.05775e-06 
108 1 0.249978 0.107148 0.423664 55.845 -1.30121e-06 
118 1 0.214253 -8.97413e-05 0.42404 55.845 -5.42832e-07 
120 1 0.250041 0.0357067 0.423654 55.845 -8.71898e-07 
183 1 0.142904 0.107085 0.295323 55.845 8.65916e-07 
193 1 0.142954 0.0358037 0.295375 55.845 9.1434e-07 
194 1 0.142851 0.0714465 0.33835 55.845 -1.07598e-06 
195 1 0.178562 0.0714875 0.295418 55.845 1.16363e-06 
196 1 0.178615 0.107176 0.338205 55.845 -1.04468e-06 
197 1 0.214393 0.107092 0.29523 55.845 1.04837e-06 
204 1 0.142794 -1.50412e-05 0.338451 55.845 -9.59233e-07 
205 1 0.178542 5.5299e-06 0.295386 55.845 1.03259e-06 
206 1 0.178632 0.035642 0.338431 55.845 -1.11993e-06 
207 1 0.214278 0.0356129 0.295453 55.845 1.29338e-06 
208 1 0.214306 0.0714462 0.338366 55.845 -1.44976e-06 
209 1 0.250021 0.0714671 0.295417 55.845 1.24195e-06 
210 1 0.25008 0.107231 0.338262 55.845 -1.32326e-06 
220 1 0.214312 4.2405e-06 0.338349 55.845 -1.1555e-06 
222 1 0.249949 0.0357502 0.338307 55.845 -1.23897e-06 
296 1 0.142835 0.0715493 0.253737 55.845 -5.57335e-07 
298 1 0.178632 0.107118 0.253758 55.845 -4.57799e-07 
306 1 0.142794 3.71069e-05 0.253746 55.845 -6.73899e-07 
308 1 0.178536 0.0357017 0.253807 55.845 -6.98417e-07 
310 1 0.214162 0.0712775 0.253723 55.845 -3.65832e-07 
312 1 0.249972 0.107133 0.253638 55.845 -5.55382e-07 
322 1 0.214341 -2.70376e-05 0.253774 55.845 -7.63483e-07 
324 1 0.25004 0.0356741 0.253926 55.845 -5.92569e-07 
30 1 0.285519 0.107182 0.464475 55.845 1.36377e-06 
35 1 0.250055 7.61543e-05 0.464579 55.845 7.56207e-07 
36 1 0.285657 0.0357375 0.464511 55.845 1.25937e-06 
37 1 0.321452 0.071512 0.464536 55.845 1.39516e-06 
38 1 0.357035 0.107118 0.464556 55.845 1.27403e-06 
42 1 0.32135 0.000115091 0.464491 55.845 9.96347e-07 
43 1 0.357101 0.0358712 0.464513 55.845 1.08427e-06 
109 1 0.285631 0.107154 0.381859 55.845 1.29632e-06 
119 1 0.250041 4.87122e-05 0.381676 55.845 8.51373e-07 
121 1 0.28582 0.0357958 0.382089 55.845 9.7508e-07 
122 1 0.285663 0.0714853 0.423855 55.845 -1.01523e-06 
123 1 0.32146 0.0714519 0.381892 55.845 1.14174e-06 
124 1 0.321346 0.107146 0.423793 55.845 -1.32361e-06 
125 1 0.357153 0.107134 0.381651 55.845 1.35204e-06 
133 1 0.321564 3.66722e-05 0.381826 55.845 6.93667e-07 
134 1 0.321492 0.0358074 0.423827 55.845 -8.05909e-07 
135 1 0.357164 0.035794 0.381536 55.845 5.57864e-07 
136 1 0.35713 0.0714752 0.423922 55.845 -1.05053e-06 
211 1 0.285664 0.107098 0.295157 55.845 1.11236e-06 
221 1 0.250026 -4.4392e-05 0.295249 55.845 9.77155e-07 
223 1 0.285705 0.0357305 0.295492 55.845 1.12094e-06 
224 1 0.28568 0.0714002 0.338366 55.845 -1.27867e-06 
225 1 0.321312 0.0714956 0.295292 55.845 1.09641e-06 
226 1 0.321428 0.107132 0.33844 55.845 -1.27533e-06 
227 1 0.357028 0.107213 0.295038 55.845 1.1972e-06 
235 1 0.321364 -2.77184e-05 0.295416 55.845 7.7023e-07 
236 1 0.321436 0.0356899 0.338339 55.845 -9.34516e-07 
237 1 0.357174 0.0357816 0.295463 55.845 1.2203e-06 
238 1 0.357001 0.0714529 0.338335 55.845 -1.21217e-06 
326 1 0.28563 0.0713649 0.253668 55.845 -5.02226e-07 
328 1 0.321405 0.107173 0.253613 55.845 -5.6601e-07 
338 1 0.321456 0.0356958 0.253654 55.845 -4.49228e-07 
340 1 0.357027 0.0714032 0.253813 55.845 -7.21319e-07 
44 1 0.392961 0.0714155 0.464665 55.845 1.17993e-06 
45 1 0.428549 0.107045 0.464814 55.845 1.15303e-06 
47 1 0.392823 7.4885e-05 0.464511 55.845 7.29284e-07 
48 1 0.428487 0.0356292 0.464538 55.845 8.55959e-07 
49 1 0.464274 0.0714992 0.464631 55.845 9.62757e-07 
50 1 0.464255 9.77688e-07 0.464527 55.845 4.96256e-07 
137 1 0.392769 0.0714881 0.381591 55.845 8.67934e-07 
138 1 0.392771 0.107174 0.423975 55.845 -1.12954e-06 
139 1 0.4284 0.107056 0.38161 55.845 1.01215e-06 
144 1 0.392883 -3.45726e-05 0.381681 55.845 2.64976e-07 
145 1 0.392841 0.0356463 0.423822 55.845 -5.75401e-07 
146 1 0.428596 0.0356743 0.381621 55.845 4.46971e-07 
147 1 0.428521 0.071324 0.42382 55.845 -8.79812e-07 
148 1 0.464286 0.0714269 0.381687 55.845 9.32268e-07 
149 1 0.464255 0.107107 0.423916 55.845 -8.6095e-07 
150 1 0.428683 -8.44359e-05 0.423854 55.845 -2.61117e-07 
151 1 0.464282 -5.87588e-05 0.381699 55.845 2.94939e-07 
152 1 0.464318 0.0357469 0.423919 55.845 -3.8907e-07 
239 1 0.392921 0.0715432 0.295335 55.845 1.02776e-06 
240 1 0.392794 0.107177 0.338391 55.845 -1.23201e-06 
241 1 0.428654 0.10727 0.295146 55.845 1.02009e-06 
246 1 0.392848 4.07155e-05 0.295327 55.845 9.79041e-07 
247 1 0.392956 0.0357131 0.338417 55.845 -1.0438e-06 
248 1 0.428715 0.035822 0.295317 55.845 1.04137e-06 
249 1 0.428609 0.0713814 0.338326 55.845 -1.12508e-06 
250 1 0.464364 0.0714892 0.295097 55.845 9.40778e-07 
251 1 0.464219 0.107253 0.338373 55.845 -1.05299e-06 
252 1 0.428559 1.55333e-05 0.338431 55.845 -8.54555e-07 
253 1 0.464194 -7.74389e-05 0.295435 55.845 9.49712e-07 
254 1 0.464282 0.0357104 0.338454 55.845 -1.01632e-06 
342 1 0.392838 0.107254 0.25364 55.845 -7.22361e-07 
349 1 0.392826 0.0358395 0.253969 55.845 -7.83006e-07 
351 1 0.428709 0.0713727 0.25359 55.845 -6.97968e-07 
353 1 0.464324 0.107157 0.25359 55.845 -7.93625e-07 
354 1 0.428589 -9.82998e-05 0.253749 55.845 -7.20383e-07 
356 1 0.464312 0.0356541 0.253594 55.845 -5.94208e-07 
1 1 0.000126677 0.178528 0.464727 55.845 7.29295e-07 
2 1 0.0358043 0.214363 0.464822 55.845 6.5974e-07 
4 1 0.03569 0.142929 0.46459 55.845 5.8983e-07 
5 1 0.0714124 0.178642 0.464583 55.845 6.08247e-07 
6 1 0.107181 0.214311 0.464507 55.845 6.14928e-07 
10 1 0.107177 0.14291 0.464635 55.845 5.45005e-07 
51 1 0.000100649 0.178699 0.38196 55.845 7.2603e-07 
52 1 9.81155e-05 0.21439 0.424218 55.845 -4.86232e-07 
53 1 0.0357424 0.214356 0.382108 55.845 3.53682e-07 
54 1 0.0357448 0.25017 0.423907 55.845 -2.58112e-07 
56 1 -7.76455e-05 0.142816 0.423849 55.845 -5.57243e-07 
57 1 0.0357884 0.142737 0.381839 55.845 6.31541e-07 
58 1 0.0356449 0.178624 0.423937 55.845 -5.14197e-07 
59 1 0.071431 0.178505 0.381944 55.845 4.48808e-07 
60 1 0.0714478 0.214372 0.424031 55.845 -2.46214e-07 
61 1 0.107135 0.214245 0.381895 55.845 3.87907e-07 
62 1 0.107248 0.250138 0.424022 55.845 -2.20819e-07 
68 1 0.0714184 0.142773 0.423997 55.845 -5.30509e-07 
69 1 0.107153 0.142762 0.381763 55.845 5.55326e-07 
70 1 0.107134 0.178539 0.423871 55.845 -6.06029e-07 
153 1 -2.68798e-05 0.17859 0.295625 55.845 5.0036e-07 
154 1 7.1654e-05 0.214485 0.338468 55.845 -6.41078e-07 
155 1 0.0356615 0.214322 0.295469 55.845 6.91387e-07 
156 1 0.0358224 0.250053 0.338311 55.845 -5.83722e-07 
158 1 -5.85692e-05 0.142829 0.33857 55.845 -8.70992e-07 
159 1 0.0356693 0.142831 0.295713 55.845 7.72996e-07 
160 1 0.0357571 0.178546 0.33849 55.845 -3.75022e-07 
161 1 0.0714432 0.178468 0.29526 55.845 5.08224e-07 
162 1 0.0713373 0.214221 0.338378 55.845 -3.76631e-07 
163 1 0.106979 0.214228 0.295315 55.845 5.44969e-07 
164 1 0.107008 0.250018 0.338456 55.845 -5.62007e-07 
170 1 0.0714326 0.142764 0.338583 55.845 -6.03767e-07 
171 1 0.107068 0.142831 0.295406 55.845 6.16451e-07 
172 1 0.107122 0.178559 0.33841 55.845 -3.58414e-07 
256 1 -2.80826e-05 0.214334 0.25386 55.845 -2.78137e-07 
258 1 0.0357093 0.250066 0.253864 55.845 -3.19768e-07 
260 1 -4.50226e-05 0.142892 0.253942 55.845 -4.19625e-07 
262 1 0.0358355 0.178575 0.253711 55.845 -4.39672e-07 
264 1 0.0713971 0.2143 0.253519 55.845 -2.91516e-07 
266 1 0.107095 0.249998 0.25371 55.845 -4.84422e-07 
272 1 0.0714142 0.142745 0.253918 55.845 -3.21901e-07 
274 1 0.107085 0.178555 0.253597 55.845 -3.7679e-07 
11 1 0.142764 0.178393 0.464675 55.845 9.47901e-07 
12 1 0.178531 0.214298 0.46483 55.845 7.89583e-07 
17 1 0.1785 0.142936 0.464779 55.845 1.0265e-06 
18 1 0.214174 0.178557 0.464811 55.845 1.28742e-06 
19 1 0.249873 0.214309 0.464655 55.845 9.98019e-07 
24 1 0.249793 0.142901 0.464677 55.845 1.53999e-06 
71 1 0.142805 0.178567 0.381725 55.845 5.10545e-07 
72 1 0.143024 0.214211 0.42405 55.845 -5.19182e-07 
73 1 0.178514 0.214203 0.381686 55.845 5.71445e-07 
82 1 0.142891 0.142887 0.423841 55.845 -8.00714e-07 
83 1 0.178514 0.14282 0.381632 55.845 9.45956e-07 
84 1 0.178411 0.178588 0.4239 55.845 -8.18658e-07 
85 1 0.214155 0.178569 0.381811 55.845 8.16836e-07 
86 1 0.214159 0.214276 0.424001 55.845 -5.46304e-07 
87 1 0.249938 0.214194 0.381924 55.845 7.69957e-07 
96 1 0.214132 0.142977 0.423882 55.845 -9.0956e-07 
97 1 0.249913 0.142782 0.381814 55.845 1.11418e-06 
98 1 0.249887 0.178569 0.423914 55.845 -1.01198e-06 
173 1 0.142662 0.178608 0.295374 55.845 5.97013e-07 
174 1 0.142763 0.214244 0.338377 55.845 -5.99927e-07 
175 1 0.178554 0.214181 0.295424 55.845 8.52078e-07 
184 1 0.142815 0.142835 0.338489 55.845 -7.39921e-07 
185 1 0.17852 0.142832 0.295178 55.845 8.46433e-07 
186 1 0.178495 0.178502 0.33823 55.845 -8.63743e-07 
187 1 0.214255 0.178504 0.295305 55.845 9.45811e-07 
188 1 0.214291 0.214283 0.338589 55.845 -1.04573e-06 
189 1 0.25001 0.214283 0.295444 55.845 1.15284e-06 
198 1 0.214348 0.14279 0.338327 55.845 -1.2057e-06 
199 1 0.250002 0.142934 0.295388 55.845 1.02979e-06 
200 1 0.249889 0.178467 0.338362 55.845 -1.02703e-06 
276 1 0.142786 0.214214 0.253826 55.845 -4.42725e-07 
286 1 0.14291 0.142899 0.253686 55.845 -3.57594e-07 
288 1 0.178475 0.178573 0.253642 55.845 -2.89135e-07 
290 1 0.214234 0.214136 0.25379 55.845 -4.4084e-07 
300 1 0.214254 0.142816 0.253619 55.845 -3.07782e-07 
302 1 0.249995 0.17864 0.253784 55.845 -7.37775e-07 
25 1 0.28567 0.178505 0.464756 55.845 1.26516e-06 
26 1 0.321306 0.214169 0.46458 55.845 9.65517e-07 
31 1 0.321443 0.142836 0.46471 55.845 1.349e-06 
32 1 0.357194 0.178584 0.464623 55.845 1.22909e-06 
99 1 0.285717 0.178487 0.3819 55.845 1.0659e-06 
100 1 0.285637 0.214164 0.423778 55.845 -6.45562e-07 
101 1 0.321523 0.21423 0.381851 55.845 7.25972e-07 
110 1 0.285652 0.142891 0.423915 55.845 -1.20327e-06 
111 1 0.321375 0.142818 0.381851 55.845 1.24864e-06 
112 1 0.321411 0.178459 0.423837 55.845 -1.07768e-06 
113 1 0.357035 0.178593 0.381733 55.845 9.90391e-07 
114 1 0.357164 0.214222 0.423991 55.845 -8.55773e-07 
126 1 0.357102 0.142742 0.423951 55.845 -1.32184e-06 
201 1 0.285761 0.178435 0.295317 55.845 1.12846e-06 
202 1 0.285684 0.214236 0.338531 55.845 -1.10693e-06 
203 1 0.32149 0.214216 0.29523 55.845 1.07123e-06 
212 1 0.285689 0.142811 0.338321 55.845 -1.30328e-06 
213 1 0.321482 0.142818 0.29533 55.845 1.20683e-06 
214 1 0.3214 0.178584 0.33827 55.845 -1.01544e-06 
215 1 0.357119 0.178366 0.295341 55.845 1.07744e-06 
216 1 0.357125 0.214217 0.338144 55.845 -8.13189e-07 