ITEM: TIMESTEP
4900
ITEM: NUMBER OF ATOMS
5880
ITEM: BOX BOUNDS pp pp ff
-27.9594 27.9594
-27.9594 27.9594
0 34.092
ITEM: ATOMS id type xs ys zs mass q 
259 1 1.47923e-05 0.107169 0.209724 55.845 3.0721e-07 
267 1 -7.19934e-05 0.0357068 0.209665 55.845 2.61929e-07 
269 1 0.0357068 0.0714774 0.209746 55.845 3.94556e-07 
271 1 0.0714874 0.107153 0.209827 55.845 5.52553e-07 
279 1 0.0357058 -2.53323e-05 0.209652 55.845 1.36429e-07 
281 1 0.0714807 0.035718 0.209753 55.845 1.80152e-07 
283 1 0.107161 0.0715177 0.20978 55.845 3.08107e-07 
293 1 0.107148 -4.34723e-06 0.209778 55.845 3.06464e-07 
361 1 -6.5184e-05 0.10711 0.125377 55.845 -2.4349e-07 
369 1 8.57935e-06 0.0358438 0.125401 55.845 -1.90596e-07 
370 1 1.74035e-05 0.0714333 0.167796 55.845 4.65778e-08 
371 1 0.0355908 0.071445 0.125319 55.845 -1.41359e-07 
372 1 0.0357525 0.107126 0.167711 55.845 1.97766e-07 
373 1 0.0713791 0.107093 0.125421 55.845 -1.96668e-07 
380 1 -1.0631e-05 -1.20772e-05 0.167736 55.845 3.74195e-08 
381 1 0.0356944 3.62581e-05 0.125434 55.845 -4.3279e-07 
382 1 0.0356511 0.0357547 0.167677 55.845 1.3118e-07 
383 1 0.0714219 0.0357674 0.125381 55.845 -3.91711e-07 
384 1 0.0714059 0.0715312 0.167736 55.845 4.20791e-08 
385 1 0.107204 0.0714324 0.125375 55.845 -2.59317e-07 
386 1 0.107123 0.107143 0.167692 55.845 4.15971e-08 
394 1 0.0713977 2.95542e-05 0.167696 55.845 -3.78196e-08 
395 1 0.107156 -1.52647e-05 0.125325 55.845 -2.27458e-07 
396 1 0.107165 0.0356771 0.167724 55.845 1.20671e-07 
463 1 0 0.107143 0.0416667 55.845 1.35121e-08 
471 1 0 0.0357143 0.0416667 55.845 1.56795e-07 
472 1 -2.68985e-05 0.071472 0.0826117 55.845 1.13978e-07 
473 1 0.0357143 0.0714286 0.0416667 55.845 1.43199e-07 
474 1 0.0356893 0.107168 0.0827267 55.845 2.46284e-07 
475 1 0.0714286 0.107143 0.0416667 55.845 -3.94272e-08 
482 1 -3.43943e-05 7.80932e-05 0.0827512 55.845 -2.21082e-07 
483 1 0.0357143 0 0.0416667 55.845 -1.08477e-07 
484 1 0.0356859 0.0357226 0.0827894 55.845 -5.00789e-08 
485 1 0.0714286 0.0357143 0.0416667 55.845 -1.00354e-07 
486 1 0.0713949 0.0714361 0.082715 55.845 2.17944e-07 
487 1 0.107143 0.0714286 0.0416667 55.845 -2.31145e-08 
488 1 0.107083 0.107169 0.0826455 55.845 7.83263e-08 
496 1 0.0714937 3.28866e-06 0.0828367 55.845 -1.66177e-07 
497 1 0.107143 0 0.0416667 55.845 1.72861e-08 
498 1 0.107144 0.0357082 0.0827631 55.845 -1.17162e-07 
567 1 0 0.0714286 0 55.845 -3.42451e-08 
568 1 0.0357143 0.107143 0 55.845 4.99496e-08 
572 1 0 0 0 55.845 -2.8627e-07 
573 1 0.0357143 0.0357143 0 55.845 -1.70411e-07 
574 1 0.0714286 0.0714286 0 55.845 -1.83748e-08 
575 1 0.107143 0.107143 0 55.845 -9.65835e-08 
579 1 0.0714286 0 0 55.845 -2.72654e-07 
580 1 0.107143 0.0357143 0 55.845 -2.18935e-07 
285 1 0.142852 0.107182 0.209712 55.845 2.40778e-07 
295 1 0.142861 0.0357383 0.209751 55.845 3.59015e-07 
297 1 0.178597 0.0713837 0.209715 55.845 2.69909e-07 
299 1 0.214367 0.107154 0.209733 55.845 2.87763e-07 
307 1 0.178628 -4.81367e-05 0.209728 55.845 3.48331e-07 
309 1 0.214275 0.0356358 0.209745 55.845 1.33881e-07 
311 1 0.249982 0.0713675 0.209758 55.845 4.51617e-07 
387 1 0.142826 0.10719 0.125491 55.845 -3.38842e-07 
397 1 0.142876 0.035643 0.125548 55.845 -1.96784e-07 
398 1 0.142875 0.071417 0.167701 55.845 1.20546e-08 
399 1 0.178605 0.0713661 0.12547 55.845 -3.13842e-07 
400 1 0.178713 0.107185 0.167705 55.845 1.46485e-07 
401 1 0.214342 0.10717 0.125311 55.845 -2.09974e-07 
408 1 0.142877 -4.10761e-05 0.167851 55.845 2.28744e-07 
409 1 0.178577 -7.85465e-05 0.125167 55.845 -2.30757e-07 
410 1 0.178604 0.0355875 0.167742 55.845 2.46015e-07 
411 1 0.214332 0.0357 0.12541 55.845 -3.28982e-07 
412 1 0.214287 0.0714035 0.167696 55.845 1.28598e-08 
413 1 0.250012 0.0713574 0.125399 55.845 -3.29646e-07 
414 1 0.250008 0.107054 0.167562 55.845 1.6218e-07 
424 1 0.214246 -6.29751e-05 0.167542 55.845 5.89101e-08 
426 1 0.250003 0.0356469 0.167786 55.845 -1.76914e-07 
489 1 0.142857 0.107143 0.0416667 55.845 -3.05101e-08 
499 1 0.142857 0.0357143 0.0416667 55.845 1.00477e-07 
500 1 0.142854 0.0714578 0.0826697 55.845 -3.82988e-08 
501 1 0.178571 0.0714286 0.0416667 55.845 4.7298e-08 
502 1 0.178548 0.107147 0.0826934 55.845 7.97777e-08 
503 1 0.214286 0.107143 0.0416667 55.845 3.68481e-08 
510 1 0.142883 4.81604e-05 0.0826843 55.845 -3.00825e-08 
511 1 0.178571 0 0.0416667 55.845 1.93128e-07 
512 1 0.178619 0.0357119 0.0826835 55.845 -5.25081e-08 
513 1 0.214286 0.0357143 0.0416667 55.845 -1.38366e-08 
514 1 0.214313 0.0713913 0.082771 55.845 -6.53935e-08 
515 1 0.25 0.0714286 0.0416667 55.845 -1.66298e-07 
516 1 0.250062 0.107108 0.0826087 55.845 1.42865e-07 
526 1 0.214375 -4.40139e-05 0.0826335 55.845 -8.22026e-08 
528 1 0.249994 0.03574 0.0828478 55.845 -1.59535e-07 
581 1 0.142857 0.0714286 0 55.845 -1.58356e-07 
582 1 0.178571 0.107143 0 55.845 -1.30956e-07 
586 1 0.142857 0 0 55.845 -1.87184e-07 
587 1 0.178571 0.0357143 0 55.845 -1.9789e-07 
588 1 0.214286 0.0714286 0 55.845 -1.33526e-07 
589 1 0.25 0.107143 0 55.845 -1.17077e-07 
594 1 0.214286 0 0 55.845 -1.66826e-07 
595 1 0.25 0.0357143 0 55.845 -2.2065e-07 
313 1 0.285676 0.107227 0.209741 55.845 4.28903e-07 
323 1 0.249972 -5.46561e-05 0.209789 55.845 2.54752e-07 
325 1 0.285745 0.0357568 0.209823 55.845 3.31655e-07 
327 1 0.321346 0.0714965 0.209817 55.845 2.76375e-07 
329 1 0.357164 0.107216 0.209798 55.845 4.3998e-08 
337 1 0.321406 9.01114e-06 0.209811 55.845 4.35435e-07 
339 1 0.357105 0.0357585 0.209832 55.845 3.09764e-07 
415 1 0.285699 0.107149 0.125375 55.845 -2.80127e-07 
425 1 0.250009 -9.47649e-05 0.125396 55.845 -2.94088e-07 
427 1 0.285745 0.0357834 0.125365 55.845 -2.68359e-07 
428 1 0.285705 0.0714526 0.167662 55.845 -1.10043e-07 
429 1 0.321426 0.0714215 0.125367 55.845 -4.33659e-07 
430 1 0.321375 0.107127 0.167809 55.845 2.50566e-07 
431 1 0.357127 0.107137 0.125487 55.845 -4.94283e-07 
439 1 0.321499 3.33349e-05 0.125497 55.845 -5.91309e-08 
440 1 0.321453 0.0357455 0.167736 55.845 2.43248e-07 
441 1 0.357125 0.0356714 0.125255 55.845 -2.5395e-07 
442 1 0.357138 0.0713995 0.167596 55.845 9.06034e-08 
517 1 0.285714 0.107143 0.0416667 55.845 -9.16491e-08 
527 1 0.25 0 0.0416667 55.845 5.30438e-08 
529 1 0.285714 0.0357143 0.0416667 55.845 -5.37447e-08 
530 1 0.285762 0.0714643 0.0827083 55.845 -9.39499e-08 
531 1 0.321429 0.0714286 0.0416667 55.845 -1.37002e-07 
532 1 0.321416 0.107196 0.0827238 55.845 -6.78894e-08 
533 1 0.357143 0.107143 0.0416667 55.845 -3.75021e-08 
603 1 0.357143 0.0714286 0 55.845 -2.59625e-07 
541 1 0.321429 0 0.0416667 55.845 2.43629e-07 
542 1 0.321468 0.0356402 0.0826608 55.845 6.78118e-08 
543 1 0.357143 0.0357143 0.0416667 55.845 1.55309e-07 
544 1 0.357157 0.071375 0.0828065 55.845 -7.30072e-08 
602 1 0.321429 0.0357143 0 55.845 -1.12412e-07 
596 1 0.285714 0.0714286 0 55.845 -2.30645e-07 
597 1 0.321429 0.107143 0 55.845 -2.51649e-07 
612 1 0.464286 0.0357143 0 55.845 -2.09552e-07 
611 1 0.428571 0 0 55.845 -1.64911e-07 
610 1 0.464286 0.107143 0 55.845 -1.39325e-07 
609 1 0.428571 0.0714286 0 55.845 -1.45922e-07 
608 1 0.392857 0.0357143 0 55.845 -1.18976e-07 
341 1 0.392867 0.0714266 0.209693 55.845 2.39839e-07 
343 1 0.428566 0.107173 0.209602 55.845 5.02771e-07 
348 1 0.392833 2.52025e-05 0.209794 55.845 2.95572e-07 
350 1 0.428614 0.0357344 0.209799 55.845 2.57126e-07 
352 1 0.464274 0.071368 0.209704 55.845 3.18437e-07 
355 1 0.464315 -2.42118e-05 0.209718 55.845 1.9229e-07 
443 1 0.392908 0.0713425 0.125427 55.845 -3.61081e-07 
444 1 0.392821 0.107083 0.167724 55.845 1.66811e-07 
445 1 0.428559 0.107186 0.125388 55.845 -2.22672e-07 
604 1 0.392857 0.107143 0 55.845 -1.88183e-07 
450 1 0.392951 1.2078e-05 0.125361 55.845 -1.99392e-07 
451 1 0.392834 0.035693 0.167737 55.845 1.5956e-07 
452 1 0.428576 0.0357086 0.125561 55.845 -3.44011e-07 
453 1 0.428609 0.0714646 0.167769 55.845 7.32616e-09 
454 1 0.464237 0.0714479 0.125241 55.845 -3.20174e-07 
455 1 0.464264 0.107168 0.167728 55.845 1.76006e-07 
456 1 0.428571 3.81505e-05 0.167745 55.845 1.53687e-07 
457 1 0.464254 8.40675e-05 0.125301 55.845 -3.95572e-07 
458 1 0.464306 0.0357701 0.167779 55.845 5.73511e-08 
545 1 0.392857 0.0714286 0.0416667 55.845 -1.10563e-07 
546 1 0.392809 0.107089 0.0827785 55.845 -2.99529e-08 
547 1 0.428571 0.107143 0.0416667 55.845 -2.76131e-08 
552 1 0.392857 0 0.0416667 55.845 9.22626e-08 
553 1 0.392836 0.0357408 0.0826511 55.845 3.91351e-08 
554 1 0.428571 0.0357143 0.0416667 55.845 -8.39527e-08 
555 1 0.42859 0.0714308 0.0827214 55.845 2.59733e-08 
556 1 0.464286 0.0714286 0.0416667 55.845 -2.43892e-08 
557 1 0.464228 0.107141 0.0826593 55.845 3.87701e-08 
558 1 0.428582 -2.36628e-05 0.0827549 55.845 1.29162e-08 
559 1 0.464286 0 0.0416667 55.845 -8.66679e-08 
560 1 0.46424 0.0357572 0.0825306 55.845 -9.67036e-08 
255 1 2.40434e-05 0.178646 0.209744 55.845 1.7958e-07 
257 1 0.0357005 0.21426 0.209584 55.845 2.07429e-07 
261 1 0.0356747 0.142932 0.209662 55.845 3.4372e-07 
263 1 0.0715169 0.178588 0.209746 55.845 3.20108e-07 
265 1 0.107087 0.214308 0.209752 55.845 3.81957e-07 
273 1 0.107125 0.142794 0.209761 55.845 3.34252e-07 
357 1 1.81739e-05 0.178519 0.125378 55.845 -3.6346e-07 
358 1 -1.57712e-05 0.214348 0.167601 55.845 6.04702e-08 
359 1 0.0357115 0.214358 0.125466 55.845 -3.30117e-07 
360 1 0.0357508 0.250044 0.167887 55.845 1.42757e-07 
362 1 8.75383e-05 0.142884 0.167774 55.845 -6.52346e-08 
363 1 0.0356835 0.142793 0.125475 55.845 -3.14081e-07 
364 1 0.0357373 0.178574 0.16766 55.845 7.08823e-08 
365 1 0.0715121 0.178596 0.125398 55.845 -3.82626e-07 
366 1 0.0714964 0.214321 0.167736 55.845 -4.08277e-08 
367 1 0.107131 0.214246 0.125232 55.845 -2.85463e-07 
368 1 0.107184 0.250038 0.167634 55.845 2.5929e-07 
374 1 0.0714514 0.142821 0.167577 55.845 4.21335e-08 
375 1 0.107145 0.14285 0.125399 55.845 -3.13834e-07 
376 1 0.107222 0.178543 0.167772 55.845 1.82327e-07 
459 1 0 0.178571 0.0416667 55.845 -2.6688e-08 
460 1 5.2831e-05 0.214284 0.0826525 55.845 2.35797e-08 
461 1 0.0357143 0.214286 0.0416667 55.845 5.30509e-09 
462 1 0.035726 0.250028 0.0827167 55.845 -6.36175e-09 
464 1 -2.25008e-05 0.142782 0.0826908 55.845 -1.59986e-07 
465 1 0.0357143 0.142857 0.0416667 55.845 -5.5409e-08 
466 1 0.0357856 0.17864 0.0827549 55.845 -2.32105e-07 
467 1 0.0714286 0.178571 0.0416667 55.845 -8.52074e-08 
468 1 0.0713947 0.214293 0.0827667 55.845 3.92269e-08 
469 1 0.107143 0.214286 0.0416667 55.845 2.97919e-08 
470 1 0.107148 0.249996 0.082655 55.845 4.75771e-08 
476 1 0.0713259 0.142844 0.0826943 55.845 9.65382e-08 
477 1 0.107143 0.142857 0.0416667 55.845 -7.25416e-08 
478 1 0.107156 0.178485 0.0827537 55.845 -1.38821e-07 
561 1 0 0.214286 0 55.845 -1.74121e-07 
562 1 0.0357143 0.25 0 55.845 -5.94543e-08 
563 1 0 0.142857 0 55.845 -2.69275e-07 
564 1 0.0357143 0.178571 0 55.845 -2.46368e-07 
565 1 0.0714286 0.214286 0 55.845 -1.94342e-07 
566 1 0.107143 0.25 0 55.845 -7.85004e-08 
569 1 0.0714286 0.142857 0 55.845 -1.666e-07 
570 1 0.107143 0.178571 0 55.845 -2.17425e-07 
275 1 0.142847 0.178651 0.209836 55.845 2.73626e-07 
277 1 0.178528 0.214266 0.209766 55.845 3.92256e-07 
287 1 0.178564 0.142874 0.209729 55.845 1.21881e-07 
289 1 0.214299 0.178497 0.209848 55.845 6.889e-08 
291 1 0.249931 0.214196 0.209787 55.845 3.24542e-07 
301 1 0.24996 0.142925 0.209731 55.845 3.6029e-07 
377 1 0.142908 0.178622 0.125405 55.845 -2.40463e-07 
378 1 0.142829 0.214274 0.167757 55.845 2.16559e-07 
379 1 0.178558 0.214372 0.125431 55.845 -3.27653e-07 
388 1 0.142896 0.14288 0.16772 55.845 4.57835e-08 
389 1 0.17855 0.142894 0.125419 55.845 -3.12528e-07 
390 1 0.178626 0.178565 0.167613 55.845 2.13903e-07 
391 1 0.214263 0.178624 0.125223 55.845 -2.74914e-07 
392 1 0.214257 0.214248 0.167768 55.845 -1.18791e-08 
393 1 0.250002 0.214361 0.125228 55.845 -4.45775e-07 
402 1 0.214322 0.142931 0.167612 55.845 1.93602e-07 
403 1 0.250024 0.142827 0.125423 55.845 -1.71629e-07 
404 1 0.250019 0.178571 0.167584 55.845 -6.20469e-08 
479 1 0.142857 0.178571 0.0416667 55.845 5.44545e-08 
480 1 0.14288 0.214297 0.0827905 55.845 7.35651e-08 
481 1 0.178571 0.214286 0.0416667 55.845 1.42051e-08 
490 1 0.142905 0.142922 0.0826314 55.845 -6.05071e-08 
491 1 0.178571 0.142857 0.0416667 55.845 1.03083e-07 
492 1 0.178555 0.178599 0.0826569 55.845 -5.89181e-08 
493 1 0.214286 0.178571 0.0416667 55.845 3.18102e-08 
494 1 0.214249 0.214349 0.0826094 55.845 -8.49097e-08 
495 1 0.25 0.214286 0.0416667 55.845 -1.15201e-07 
504 1 0.214263 0.142962 0.0827322 55.845 6.14628e-08 
505 1 0.25 0.142857 0.0416667 55.845 1.20268e-07 
506 1 0.250088 0.178568 0.082756 55.845 -9.63377e-08 
571 1 0.142857 0.214286 0 55.845 -1.70663e-07 
576 1 0.142857 0.142857 0 55.845 -1.92988e-07 
577 1 0.178571 0.178571 0 55.845 -1.89487e-07 
578 1 0.214286 0.214286 0 55.845 -2.36337e-07 
583 1 0.214286 0.142857 0 55.845 -4.2412e-08 
584 1 0.25 0.178571 0 55.845 -1.71162e-07 
303 1 0.2857 0.178576 0.209794 55.845 2.3429e-07 
305 1 0.321389 0.21426 0.209801 55.845 4.49297e-07 
315 1 0.321412 0.142902 0.209643 55.845 1.53059e-07 
317 1 0.357096 0.178631 0.209838 55.845 1.45524e-07 
405 1 0.28575 0.178542 0.125358 55.845 -2.01926e-07 
406 1 0.285646 0.214271 0.167729 55.845 -1.3781e-07 
407 1 0.321398 0.214249 0.125346 55.845 -2.24028e-07 
416 1 0.285657 0.142862 0.167747 55.845 1.996e-07 
417 1 0.32133 0.142785 0.125407 55.845 -2.74841e-07 
418 1 0.321384 0.178672 0.167667 55.845 2.08268e-07 
419 1 0.35711 0.178572 0.12534 55.845 -1.48892e-07 
420 1 0.357135 0.214246 0.16775 55.845 1.30062e-07 
432 1 0.357085 0.142966 0.167614 55.845 2.54723e-07 
507 1 0.285714 0.178571 0.0416667 55.845 1.03847e-07 
508 1 0.285699 0.214295 0.0826614 55.845 -1.18644e-07 
509 1 0.321429 0.214286 0.0416667 55.845 1.10893e-07 
518 1 0.285677 0.142938 0.0827422 55.845 6.91764e-08 
519 1 0.321429 0.142857 0.0416667 55.845 1.78824e-07 
520 1 0.321379 0.178595 0.0826814 55.845 -7.35288e-09 
521 1 0.357143 0.178571 0.0416667 55.845 2.70792e-07 
522 1 0.35713 0.214267 0.0827755 55.845 9.4116e-09 
534 1 0.357069 0.142826 0.082648 55.845 -5.69673e-08 
585 1 0.285714 0.214286 0 55.845 -2.18748e-07 
590 1 0.285714 0.142857 0 55.845 -7.91858e-08 
591 1 0.321429 0.178571 0 55.845 -1.00691e-07 
592 1 0.357143 0.214286 0 55.845 -1.25354e-07 
598 1 0.357143 0.142857 0 55.845 -1.6731e-07 
319 1 0.392835 0.214258 0.209846 55.845 2.28204e-07 
321 1 0.428569 0.250038 0.20966 55.845 2.67867e-07 
331 1 0.392887 0.142848 0.20967 55.845 1.32931e-07 
333 1 0.428626 0.178622 0.209721 55.845 2.42055e-07 
335 1 0.464302 0.214332 0.209778 55.845 1.79007e-07 
345 1 0.46429 0.142903 0.2097 55.845 4.85353e-07 
606 1 0.464286 0.178571 0 55.845 -2.86728e-07 
421 1 0.392885 0.214176 0.125532 55.845 -1.98444e-07 
422 1 0.39284 0.249919 0.167723 55.845 2.41597e-07 
423 1 0.428592 0.24999 0.125314 55.845 -1.68692e-07 
433 1 0.392822 0.14277 0.125455 55.845 -2.20636e-07 
434 1 0.392857 0.178532 0.167739 55.845 4.09534e-08 
435 1 0.428547 0.178536 0.125312 55.845 -2.36883e-07 
436 1 0.428586 0.214337 0.167645 55.845 -3.03617e-07 
437 1 0.464356 0.214288 0.125469 55.845 -2.57348e-07 
605 1 0.428571 0.142857 0 55.845 -1.88023e-07 
446 1 0.428588 0.142881 0.167698 55.845 1.58633e-07 
447 1 0.46433 0.142838 0.125216 55.845 -1.36812e-07 
448 1 0.464312 0.178595 0.167774 55.845 -6.89921e-08 
523 1 0.392857 0.214286 0.0416667 55.845 8.83513e-08 
524 1 0.392849 0.249883 0.0827868 55.845 -1.24459e-07 
525 1 0.428571 0.25 0.0416667 55.845 1.22385e-07 
535 1 0.392857 0.142857 0.0416667 55.845 9.09957e-08 
536 1 0.392842 0.178524 0.0826102 55.845 -1.53333e-07 
537 1 0.428571 0.178571 0.0416667 55.845 5.54974e-08 
538 1 0.428618 0.214262 0.0827916 55.845 -2.25734e-07 
539 1 0.464286 0.214286 0.0416667 55.845 3.22379e-09 
548 1 0.428519 0.142831 0.0827042 55.845 -8.24622e-08 
549 1 0.464286 0.142857 0.0416667 55.845 8.71845e-08 
550 1 0.46427 0.178581 0.0828138 55.845 -3.09712e-07 
593 1 0.392857 0.25 0 55.845 -1.57018e-07 
599 1 0.392857 0.178571 0 55.845 -1.59724e-07 
600 1 0.428571 0.214286 0 55.845 -2.52275e-07 
3 1 -1.39774e-06 0.107218 0.460822 55.845 -1.35157e-07 
7 1 -2.86537e-05 0.0356715 0.460918 55.845 -1.42207e-07 
8 1 0.0356497 0.0715513 0.460884 55.845 1.98867e-07 
9 1 0.0713749 0.107174 0.460785 55.845 1.03937e-07 
13 1 0.0357224 2.21073e-05 0.460831 55.845 -1.74309e-07 
14 1 0.071417 0.0357363 0.460868 55.845 -1.18614e-07 
15 1 0.107053 0.0714608 0.460944 55.845 1.19783e-07 
20 1 0.107115 -2.33513e-05 0.460903 55.845 -1.1342e-07 
55 1 0.000111425 0.107135 0.376753 55.845 3.17098e-07 
63 1 -2.86418e-06 0.035796 0.376678 55.845 4.94236e-07 
64 1 4.57975e-05 0.0713981 0.418973 55.845 1.49438e-07 
65 1 0.035749 0.0713965 0.376635 55.845 3.19599e-07 
66 1 0.035727 0.107222 0.419075 55.845 1.14041e-07 
67 1 0.071363 0.107128 0.376747 55.845 3.9138e-07 
74 1 3.79579e-05 4.74403e-05 0.418858 55.845 4.16735e-10 
75 1 0.0357289 -2.38843e-05 0.376703 55.845 3.27666e-07 
76 1 0.0356888 0.035745 0.418758 55.845 -8.71639e-08 
77 1 0.0713649 0.0356584 0.376744 55.845 4.01576e-07 
78 1 0.0714476 0.0714339 0.419021 55.845 9.80429e-08 
79 1 0.107105 0.0715131 0.376768 55.845 2.30539e-07 
80 1 0.107076 0.10715 0.418973 55.845 -2.89882e-08 
88 1 0.0714279 -2.37045e-05 0.418839 55.845 -5.77422e-08 
89 1 0.107168 4.80042e-05 0.376792 55.845 4.95407e-07 
90 1 0.107128 0.0357545 0.418933 55.845 -4.07496e-08 
157 1 7.174e-05 0.10713 0.292842 55.845 -5.26357e-07 
165 1 7.22913e-05 0.0357124 0.2928 55.845 -4.21097e-07 
166 1 2.21642e-05 0.071443 0.334578 55.845 -1.58077e-08 
167 1 0.0357702 0.0714612 0.292805 55.845 -3.67511e-07 
168 1 0.0357573 0.107157 0.334575 55.845 1.7265e-07 
169 1 0.0714475 0.107196 0.293008 55.845 -3.44682e-07 
176 1 -3.43097e-05 -3.85131e-05 0.334603 55.845 -1.26581e-07 
177 1 0.0357521 -2.84977e-05 0.292672 55.845 -3.35937e-07 
178 1 0.035697 0.035732 0.334356 55.845 -5.01666e-08 
179 1 0.0714134 0.0357336 0.29267 55.845 -4.66599e-07 
180 1 0.071462 0.0714531 0.334497 55.845 -4.3284e-08 
181 1 0.107148 0.0714206 0.292857 55.845 -4.96196e-07 
182 1 0.107119 0.107154 0.334604 55.845 1.35363e-07 
190 1 0.0713799 1.03287e-05 0.334442 55.845 -1.75662e-07 
191 1 0.107114 -6.33474e-06 0.292741 55.845 -2.91133e-07 
192 1 0.107067 0.0357626 0.334555 55.845 9.30432e-08 
268 1 -2.55125e-05 0.071478 0.251085 55.845 6.73307e-08 
270 1 0.0357503 0.107192 0.251035 55.845 -1.04893e-07 
278 1 -3.35454e-05 -3.74776e-05 0.25111 55.845 1.62896e-07 
280 1 0.0356669 0.0357389 0.250995 55.845 -1.11281e-07 
282 1 0.0714242 0.0714561 0.251052 55.845 2.89478e-08 
284 1 0.107212 0.107073 0.251229 55.845 -1.78006e-07 
292 1 0.071381 7.20269e-06 0.251078 55.845 1.07968e-07 
294 1 0.107161 0.0357545 0.250984 55.845 3.19976e-08 
16 1 0.142718 0.1071 0.460888 55.845 6.10133e-08 
21 1 0.142777 0.0357139 0.46078 55.845 1.62468e-08 
22 1 0.178482 0.0714785 0.460665 55.845 2.72229e-09 
23 1 0.21429 0.107135 0.460689 55.845 9.59312e-08 
27 1 0.178598 8.26993e-05 0.460837 55.845 -1.60692e-07 
28 1 0.214287 0.035724 0.4609 55.845 -2.15171e-07 
29 1 0.249974 0.0714566 0.460899 55.845 -2.1388e-08 
81 1 0.142816 0.107113 0.376934 55.845 1.9941e-07 
91 1 0.142825 0.035711 0.376713 55.845 4.82073e-07 
92 1 0.14275 0.0714056 0.418989 55.845 7.03753e-08 
93 1 0.178504 0.0714834 0.376661 55.845 3.58728e-07 
94 1 0.178543 0.107138 0.41888 55.845 -7.96633e-08 
95 1 0.214249 0.107114 0.376711 55.845 4.08337e-07 
102 1 0.142901 1.40417e-05 0.41888 55.845 2.76041e-07 
103 1 0.178593 4.98613e-05 0.37674 55.845 5.30872e-07 
104 1 0.178574 0.0357839 0.418907 55.845 1.15659e-07 
105 1 0.21425 0.0357005 0.376879 55.845 2.66099e-07 
106 1 0.214239 0.0713967 0.418865 55.845 1.63498e-07 
107 1 0.249988 0.0713953 0.376813 55.845 1.62387e-07 
108 1 0.24992 0.107153 0.418898 55.845 9.32439e-08 
118 1 0.214231 -5.47493e-05 0.41908 55.845 1.56333e-07 
120 1 0.249949 0.0357218 0.419032 55.845 -8.4657e-08 
183 1 0.142842 0.107156 0.292917 55.845 -5.80975e-07 
193 1 0.142799 0.0357169 0.292884 55.845 -2.23871e-07 
194 1 0.142858 0.0715077 0.334464 55.845 4.4941e-08 
195 1 0.178559 0.0714216 0.292819 55.845 -4.22787e-07 
196 1 0.178544 0.107157 0.334548 55.845 3.82877e-08 
197 1 0.214286 0.107141 0.292896 55.845 -3.47901e-07 
204 1 0.142816 1.316e-05 0.334435 55.845 1.04627e-07 
205 1 0.178605 -6.5473e-05 0.292859 55.845 -1.81462e-07 
206 1 0.178562 0.0357813 0.33447 55.845 8.16411e-08 
207 1 0.214268 0.0356563 0.292906 55.845 -3.84075e-07 
208 1 0.214308 0.0713459 0.334608 55.845 2.16047e-08 
209 1 0.24995 0.0714215 0.292869 55.845 -5.42047e-07 
210 1 0.249946 0.107177 0.334583 55.845 4.76735e-07 
220 1 0.214342 -1.44428e-05 0.334576 55.845 -2.91984e-07 
222 1 0.250008 0.0357985 0.334585 55.845 2.48925e-08 
296 1 0.142873 0.0714396 0.251108 55.845 6.66245e-08 
298 1 0.178539 0.107171 0.251139 55.845 -6.0844e-08 
306 1 0.142882 2.3877e-05 0.251209 55.845 3.12837e-07 
308 1 0.178543 0.0356561 0.251192 55.845 4.79907e-08 
310 1 0.214261 0.0714991 0.251153 55.845 8.42925e-08 
312 1 0.249965 0.107057 0.251023 55.845 1.56572e-07 
322 1 0.214298 -2.90592e-05 0.251008 55.845 -1.65055e-08 
324 1 0.249941 0.0357116 0.251185 55.845 -2.52632e-07 
30 1 0.28566 0.107136 0.460724 55.845 1.28978e-08 
35 1 0.250051 -2.55233e-05 0.460781 55.845 -1.39871e-07 
36 1 0.285717 0.0356012 0.460809 55.845 -1.507e-07 
37 1 0.321439 0.0713982 0.460684 55.845 -1.07619e-07 
38 1 0.357088 0.107161 0.460724 55.845 -6.64658e-08 
42 1 0.321367 6.8658e-07 0.460967 55.845 2.77219e-08 
43 1 0.35711 0.0356704 0.460803 55.845 -6.027e-08 
109 1 0.285635 0.107106 0.376782 55.845 2.97506e-07 
119 1 0.250002 -2.30203e-05 0.376769 55.845 2.89047e-07 
121 1 0.285747 0.0357385 0.376805 55.845 1.82686e-07 
122 1 0.285662 0.0713717 0.418942 55.845 2.13437e-07 
123 1 0.321318 0.0714003 0.376714 55.845 1.55398e-07 
124 1 0.321473 0.107104 0.418864 55.845 3.71618e-08 
125 1 0.357165 0.107159 0.37675 55.845 4.28922e-07 
133 1 0.321514 3.37063e-05 0.376698 55.845 5.71005e-07 
134 1 0.3214 0.0356773 0.418929 55.845 2.62219e-07 
135 1 0.357184 0.0357068 0.376791 55.845 4.15144e-07 
136 1 0.357109 0.0713798 0.41896 55.845 4.63133e-08 
211 1 0.28563 0.107177 0.29284 55.845 -2.9101e-07 
221 1 0.249976 -7.27525e-05 0.292906 55.845 -5.2699e-07 
223 1 0.285663 0.0357185 0.293013 55.845 -4.39077e-07 
224 1 0.285708 0.0714501 0.334431 55.845 2.46887e-07 
225 1 0.321468 0.0713193 0.292818 55.845 -3.91618e-07 
226 1 0.321404 0.107133 0.334627 55.845 1.17547e-07 
227 1 0.357187 0.107145 0.292798 55.845 -4.50705e-07 
235 1 0.321405 2.96982e-05 0.292931 55.845 -6.87463e-08 
236 1 0.321377 0.035673 0.334513 55.845 1.0637e-07 
237 1 0.35719 0.0357181 0.292845 55.845 -3.36038e-07 
238 1 0.357076 0.0713673 0.334655 55.845 2.86427e-08 
326 1 0.285674 0.0714249 0.251187 55.845 6.2837e-08 
328 1 0.321444 0.107138 0.251134 55.845 5.57364e-08 
338 1 0.321473 0.035686 0.251131 55.845 4.52341e-08 
340 1 0.357135 0.0714469 0.250969 55.845 3.97255e-08 
44 1 0.392816 0.0713864 0.460817 55.845 7.28465e-08 
45 1 0.42864 0.107167 0.460897 55.845 1.30268e-08 
47 1 0.392906 3.1303e-05 0.460885 55.845 -1.32094e-08 
48 1 0.428543 0.0356633 0.460891 55.845 -1.96978e-07 
49 1 0.464263 0.0714514 0.460913 55.845 -4.24155e-08 
50 1 0.464286 8.19829e-05 0.46077 55.845 -1.41956e-07 
137 1 0.392915 0.0714141 0.376781 55.845 1.65965e-07 
138 1 0.392828 0.107163 0.418911 55.845 -5.70225e-08 
139 1 0.428522 0.10709 0.3767 55.845 6.19746e-07 
144 1 0.392912 2.01678e-06 0.376744 55.845 2.66764e-07 
145 1 0.392874 0.0356763 0.41887 55.845 9.92627e-08 
146 1 0.428642 0.0357386 0.376651 55.845 2.47766e-07 
147 1 0.428569 0.0713875 0.419009 55.845 7.31729e-08 
148 1 0.464208 0.0713877 0.376597 55.845 1.32088e-07 
149 1 0.464225 0.107179 0.418794 55.845 3.19388e-07 
150 1 0.428652 -3.29569e-05 0.418962 55.845 9.37633e-08 
151 1 0.46428 1.73052e-05 0.376722 55.845 2.24636e-07 
152 1 0.464259 0.0357909 0.419073 55.845 4.13631e-08 
239 1 0.392761 0.0714984 0.292789 55.845 -5.14868e-07 
240 1 0.392849 0.107118 0.334513 55.845 4.98806e-08 
241 1 0.428579 0.107099 0.292742 55.845 -1.77021e-07 
246 1 0.392826 -0.000122781 0.292852 55.845 -2.79934e-07 
247 1 0.392804 0.0357018 0.334565 55.845 9.6511e-08 
248 1 0.428551 0.0356639 0.292884 55.845 -5.41819e-07 
249 1 0.428568 0.0714103 0.334462 55.845 1.89829e-07 
250 1 0.464368 0.0713388 0.292818 55.845 -3.44969e-07 
251 1 0.46432 0.107138 0.334333 55.845 4.69639e-08 
252 1 0.428594 -4.21861e-05 0.334648 55.845 5.3945e-08 
253 1 0.464353 -2.6015e-05 0.292863 55.845 -2.39845e-07 
254 1 0.464236 0.0357027 0.334539 55.845 -8.88834e-08 
342 1 0.392972 0.107173 0.251055 55.845 1.36769e-07 
349 1 0.392836 0.0357277 0.251235 55.845 7.56867e-08 
351 1 0.428546 0.0713748 0.251065 55.845 -6.00662e-09 
353 1 0.464268 0.10716 0.251162 55.845 8.55247e-08 
354 1 0.428608 -9.92017e-05 0.251205 55.845 1.03098e-07 
356 1 0.464291 0.0356594 0.251124 55.845 -1.44241e-08 
1 1 -5.53776e-05 0.17853 0.460782 55.845 -1.49236e-07 
2 1 0.0356742 0.214402 0.460859 55.845 -5.55443e-08 
4 1 0.0357615 0.142861 0.460713 55.845 -1.42529e-07 
5 1 0.0713413 0.178597 0.460901 55.845 -1.63776e-07 
6 1 0.107162 0.214184 0.460925 55.845 -4.96965e-08 
10 1 0.107147 0.142918 0.460701 55.845 -1.18729e-07 
51 1 -6.58029e-05 0.178567 0.376716 55.845 2.99148e-07 
52 1 -7.1269e-07 0.214365 0.418868 55.845 -2.52727e-08 
53 1 0.0357906 0.21432 0.376778 55.845 2.52121e-07 
54 1 0.0357014 0.250048 0.418952 55.845 6.81405e-08 
56 1 3.60958e-05 0.142908 0.418999 55.845 7.37907e-08 
57 1 0.0357197 0.142867 0.376605 55.845 3.29838e-07 
58 1 0.0356408 0.178617 0.418904 55.845 -2.73942e-08 
59 1 0.0714596 0.178511 0.376699 55.845 2.47019e-07 
60 1 0.071399 0.214296 0.418978 55.845 1.0205e-07 
61 1 0.107158 0.214222 0.376877 55.845 3.12036e-07 
62 1 0.107103 0.249955 0.419011 55.845 2.00538e-07 
68 1 0.0714144 0.142932 0.418999 55.845 2.30266e-07 
69 1 0.107134 0.142877 0.376772 55.845 2.49497e-07 
70 1 0.107069 0.17859 0.419031 55.845 1.27952e-07 
153 1 7.12304e-06 0.178625 0.29279 55.845 -4.3973e-07 
154 1 2.44072e-05 0.214292 0.334491 55.845 5.10148e-08 
155 1 0.0357259 0.214316 0.292763 55.845 -5.37822e-07 
156 1 0.0357189 0.249968 0.334551 55.845 -9.23835e-09 
158 1 1.87255e-05 0.142931 0.334524 55.845 -1.92285e-07 
159 1 0.0357351 0.142864 0.292794 55.845 -2.12319e-07 
160 1 0.0356661 0.178622 0.334463 55.845 4.31856e-08 
161 1 0.0714326 0.178584 0.292711 55.845 -2.99112e-07 
162 1 0.0714638 0.214214 0.334394 55.845 -1.36997e-08 
163 1 0.107126 0.214226 0.292858 55.845 -3.76258e-07 
164 1 0.107159 0.249947 0.334521 55.845 1.41643e-07 
170 1 0.0713685 0.142864 0.334454 55.845 -6.42725e-08 
171 1 0.107128 0.142801 0.292917 55.845 -3.04767e-07 
172 1 0.107119 0.178583 0.334475 55.845 2.22673e-07 
256 1 -2.16899e-05 0.214341 0.251137 55.845 1.76269e-07 
258 1 0.0357443 0.249924 0.251087 55.845 -8.55434e-08 
260 1 1.19001e-05 0.142844 0.251009 55.845 3.61904e-09 
262 1 0.0357104 0.178525 0.250991 55.845 -1.18744e-07 
264 1 0.0714259 0.214306 0.251113 55.845 -3.60046e-09 
266 1 0.107199 0.250032 0.251056 55.845 -1.39702e-08 
272 1 0.0714673 0.142859 0.251027 55.845 4.7185e-08 
274 1 0.107188 0.178547 0.251032 55.845 1.53691e-10 
11 1 0.142751 0.178445 0.460785 55.845 -5.37837e-08 
12 1 0.178568 0.214241 0.460811 55.845 -5.68849e-08 
17 1 0.178433 0.142753 0.460912 55.845 -1.21286e-07 
18 1 0.214181 0.178543 0.460874 55.845 -1.45395e-07 
19 1 0.249984 0.214274 0.460901 55.845 -2.48654e-07 
24 1 0.249942 0.142815 0.4608 55.845 -5.8764e-09 
71 1 0.142877 0.178504 0.376786 55.845 2.77748e-07 
72 1 0.142922 0.214166 0.418991 55.845 2.88375e-07 
73 1 0.178511 0.214219 0.376817 55.845 3.38041e-07 
82 1 0.142737 0.14274 0.418982 55.845 9.14143e-08 
83 1 0.178509 0.142824 0.376682 55.845 3.9074e-07 
84 1 0.178546 0.178408 0.418963 55.845 1.51776e-08 
85 1 0.214332 0.178526 0.376768 55.845 1.17987e-07 
86 1 0.214194 0.214243 0.418969 55.845 8.63143e-08 
87 1 0.24993 0.214216 0.376751 55.845 -3.92024e-08 
96 1 0.214202 0.142806 0.418927 55.845 1.51817e-07 
97 1 0.249984 0.142908 0.376659 55.845 3.76645e-07 
98 1 0.249976 0.178644 0.418926 55.845 -9.36892e-09 
173 1 0.142864 0.178569 0.292885 55.845 -3.19721e-07 
174 1 0.142826 0.21416 0.334662 55.845 2.41241e-07 
175 1 0.178544 0.214255 0.292852 55.845 -4.0393e-07 
184 1 0.142851 0.142739 0.334686 55.845 -1.38571e-07 
185 1 0.178552 0.142822 0.29278 55.845 -4.9123e-07 
186 1 0.178588 0.178487 0.334559 55.845 7.26414e-08 
187 1 0.214271 0.178602 0.292717 55.845 -5.23542e-07 
188 1 0.214307 0.214301 0.334593 55.845 -5.66221e-08 
189 1 0.250022 0.214149 0.292841 55.845 -6.29044e-07 
198 1 0.214235 0.142846 0.334409 55.845 -1.77182e-07 
199 1 0.249985 0.142801 0.29287 55.845 -4.6754e-07 
200 1 0.249951 0.178587 0.334541 55.845 5.67213e-08 
276 1 0.142829 0.214302 0.251256 55.845 3.28388e-07 
286 1 0.142835 0.142809 0.251086 55.845 4.53441e-08 
288 1 0.178515 0.178581 0.251098 55.845 1.67789e-08 
290 1 0.214236 0.214286 0.251103 55.845 8.71577e-10 
300 1 0.214302 0.142785 0.251063 55.845 1.55715e-07 
302 1 0.250026 0.178549 0.251103 55.845 -2.3694e-07 
25 1 0.285703 0.178576 0.460812 55.845 -1.30783e-07 
26 1 0.321407 0.214273 0.460792 55.845 -8.52856e-08 
31 1 0.32137 0.142804 0.460798 55.845 -6.59757e-08 
32 1 0.35712 0.178571 0.460724 55.845 6.28796e-08 
99 1 0.285668 0.178491 0.376657 55.845 5.08602e-08 
100 1 0.285694 0.214213 0.418916 55.845 1.78673e-07 
101 1 0.321431 0.214248 0.376824 55.845 3.37709e-07 
110 1 0.2857 0.142864 0.418919 55.845 3.22187e-07 
111 1 0.321341 0.142809 0.376599 55.845 4.69313e-07 
112 1 0.321294 0.178512 0.418963 55.845 1.63708e-07 
113 1 0.357123 0.178522 0.376822 55.845 4.80311e-07 
114 1 0.357099 0.214213 0.419043 55.845 9.85114e-08 
126 1 0.357164 0.142747 0.418856 55.845 -1.16213e-08 
201 1 0.285699 0.178583 0.292817 55.845 -4.784e-07 
202 1 0.285678 0.214252 0.334705 55.845 4.01692e-09 
203 1 0.321379 0.214284 0.29288 55.845 -3.26122e-07 
212 1 0.285715 0.142833 0.334408 55.845 6.52713e-08 
213 1 0.321458 0.142816 0.29283 55.845 -3.37808e-07 
214 1 0.321397 0.178466 0.334506 55.845 9.20459e-08 
215 1 0.357139 0.1786 0.292954 55.845 -4.50898e-07 