ITEM: TIMESTEP
9500
ITEM: NUMBER OF ATOMS
5880
ITEM: BOX BOUNDS pp pp ff
-28.0187 28.0187
-28.0187 28.0187
0 34.092
ITEM: ATOMS id type xs ys zs mass q 
259 1 2.83077e-05 0.10718 0.208303 55.845 -1.10247e-07 
267 1 2.15818e-05 0.0357009 0.208345 55.845 -1.44088e-07 
269 1 0.0357466 0.0715176 0.208479 55.845 -2.05172e-07 
271 1 0.0714931 0.107149 0.208332 55.845 -1.56724e-07 
279 1 0.0358692 -2.85075e-05 0.208085 55.845 -2.3827e-07 
281 1 0.0715502 0.0355811 0.208073 55.845 -2.54278e-07 
283 1 0.107278 0.0713848 0.208107 55.845 -1.3916e-07 
293 1 0.107281 -0.000204929 0.207857 55.845 -1.57913e-07 
361 1 -2.35245e-06 0.107271 0.125302 55.845 5.42236e-07 
369 1 7.43306e-05 0.0358795 0.125208 55.845 3.7007e-07 
370 1 6.773e-05 0.0715807 0.167052 55.845 1.52072e-07 
371 1 0.0357197 0.0714815 0.125361 55.845 4.29148e-07 
372 1 0.0356598 0.107201 0.167192 55.845 1.09764e-07 
373 1 0.0714812 0.107175 0.125545 55.845 3.57715e-07 
380 1 -6.18685e-05 0.00013894 0.166818 55.845 2.16422e-07 
381 1 0.0358256 4.62431e-06 0.12525 55.845 2.48295e-07 
382 1 0.0358349 0.0356974 0.166943 55.845 2.18665e-07 
383 1 0.0714941 0.0357461 0.12522 55.845 3.43911e-07 
384 1 0.0713904 0.0714595 0.16714 55.845 2.13293e-07 
385 1 0.107173 0.0713586 0.125334 55.845 2.88809e-07 
386 1 0.107143 0.107185 0.166876 55.845 1.54202e-07 
394 1 0.0715629 -1.73339e-05 0.166711 55.845 1.21799e-07 
395 1 0.107224 -1.01217e-05 0.124986 55.845 3.68054e-07 
396 1 0.107185 0.0355999 0.166749 55.845 1.08861e-07 
463 1 0 0.107143 0.0416667 55.845 -6.26434e-08 
471 1 0 0.0357143 0.0416667 55.845 -2.88969e-08 
472 1 -5.92238e-05 0.0714905 0.0827075 55.845 -2.6597e-07 
473 1 0.0357143 0.0714286 0.0416667 55.845 -2.15581e-08 
474 1 0.0357896 0.107212 0.0826395 55.845 -3.2891e-07 
475 1 0.0714286 0.107143 0.0416667 55.845 -1.75859e-07 
482 1 -6.94732e-05 0.000106519 0.0824427 55.845 -3.60065e-07 
483 1 0.0357143 0 0.0416667 55.845 -1.06558e-08 
484 1 0.0357424 0.0357805 0.0828884 55.845 -2.19411e-07 
485 1 0.0714286 0.0357143 0.0416667 55.845 2.21812e-08 
486 1 0.0714498 0.0714211 0.0827201 55.845 -2.6946e-07 
487 1 0.107143 0.0714286 0.0416667 55.845 -1.29609e-07 
488 1 0.107124 0.107185 0.0827306 55.845 -2.75433e-07 
496 1 0.0713846 6.23019e-05 0.0824633 55.845 -2.98618e-07 
497 1 0.107143 0 0.0416667 55.845 -1.38019e-08 
498 1 0.107133 0.0357381 0.0826387 55.845 -3.8229e-07 
567 1 0 0.0714286 0 55.845 -4.69817e-08 
568 1 0.0357143 0.107143 0 55.845 -1.86986e-07 
572 1 0 0 0 55.845 1.10225e-07 
573 1 0.0357143 0.0357143 0 55.845 6.23352e-08 
574 1 0.0714286 0.0714286 0 55.845 -3.36419e-08 
575 1 0.107143 0.107143 0 55.845 8.88862e-08 
579 1 0.0714286 0 0 55.845 9.05392e-08 
580 1 0.107143 0.0357143 0 55.845 -4.50843e-08 
285 1 0.142841 0.107082 0.207973 55.845 -1.41924e-07 
295 1 0.14289 0.0357086 0.208033 55.845 -4.58165e-08 
297 1 0.178614 0.0714992 0.208089 55.845 -8.51793e-08 
299 1 0.214281 0.107092 0.208153 55.845 -5.88997e-09 
307 1 0.178522 9.85436e-05 0.208241 55.845 4.18216e-09 
309 1 0.214311 0.0357806 0.207996 55.845 -5.12636e-08 
311 1 0.249896 0.0715149 0.208265 55.845 -1.103e-07 
387 1 0.142814 0.106988 0.125415 55.845 2.38756e-07 
397 1 0.142893 0.0357205 0.125249 55.845 2.98816e-07 
398 1 0.142863 0.0713625 0.166736 55.845 1.1892e-07 
399 1 0.178568 0.0715383 0.125217 55.845 2.10975e-07 
400 1 0.178507 0.107215 0.166967 55.845 1.16215e-07 
401 1 0.214323 0.107098 0.125395 55.845 1.27306e-07 
408 1 0.142926 -2.60991e-05 0.166632 55.845 -5.56371e-11 
409 1 0.178737 0.0001162 0.125026 55.845 4.87422e-07 
410 1 0.178558 0.0358127 0.166823 55.845 4.40002e-08 
411 1 0.214402 0.0357662 0.125256 55.845 3.68739e-07 
412 1 0.214285 0.0714707 0.166822 55.845 7.05913e-08 
413 1 0.250013 0.0713712 0.125228 55.845 2.22405e-07 
414 1 0.250018 0.107109 0.166942 55.845 1.24534e-07 
424 1 0.21421 8.75151e-05 0.166876 55.845 4.01797e-08 
426 1 0.250122 0.0356724 0.167084 55.845 8.2861e-08 
489 1 0.142857 0.107143 0.0416667 55.845 -4.7027e-09 
499 1 0.142857 0.0357143 0.0416667 55.845 -1.60859e-07 
500 1 0.142858 0.071447 0.0824815 55.845 -4.21709e-07 
501 1 0.178571 0.0714286 0.0416667 55.845 -4.78751e-08 
502 1 0.178601 0.107227 0.0825635 55.845 -4.54716e-07 
503 1 0.214286 0.107143 0.0416667 55.845 5.09948e-08 
510 1 0.142816 7.31593e-05 0.0825341 55.845 -4.0683e-07 
511 1 0.178571 0 0.0416667 55.845 -1.19647e-07 
512 1 0.178604 0.0358779 0.0827664 55.845 -4.33094e-07 
513 1 0.214286 0.0357143 0.0416667 55.845 3.72505e-08 
514 1 0.214245 0.0713893 0.0826092 55.845 -4.25745e-07 
515 1 0.25 0.0714286 0.0416667 55.845 4.81962e-08 
516 1 0.250051 0.107066 0.0825575 55.845 -5.26078e-07 
526 1 0.214473 -5.58434e-06 0.0826493 55.845 -2.88637e-07 
528 1 0.250029 0.035634 0.0826343 55.845 -2.65464e-07 
581 1 0.142857 0.0714286 0 55.845 4.30661e-08 
582 1 0.178571 0.107143 0 55.845 2.50756e-07 
586 1 0.142857 0 0 55.845 -9.06547e-08 
587 1 0.178571 0.0357143 0 55.845 -1.384e-08 
588 1 0.214286 0.0714286 0 55.845 2.12269e-07 
589 1 0.25 0.107143 0 55.845 2.54041e-07 
594 1 0.214286 0 0 55.845 -3.73379e-08 
595 1 0.25 0.0357143 0 55.845 2.09835e-07 
313 1 0.285721 0.107199 0.208274 55.845 -4.01756e-08 
323 1 0.249885 -0.000132389 0.208381 55.845 -7.15652e-08 
325 1 0.2857 0.0356495 0.208165 55.845 -1.00827e-07 
327 1 0.321392 0.0713755 0.208137 55.845 -9.14746e-08 
329 1 0.357164 0.107179 0.208045 55.845 -1.36316e-07 
337 1 0.321443 -0.000103725 0.208219 55.845 -3.40495e-09 
339 1 0.357244 0.0356937 0.208211 55.845 3.61081e-08 
415 1 0.285537 0.107186 0.125465 55.845 1.17159e-07 
425 1 0.250148 -3.94079e-05 0.125414 55.845 5.4531e-07 
427 1 0.285843 0.0357286 0.125434 55.845 3.13302e-07 
428 1 0.285671 0.0714437 0.16715 55.845 1.2276e-07 
429 1 0.32133 0.0714053 0.125354 55.845 2.15469e-07 
430 1 0.321459 0.10712 0.166715 55.845 1.94896e-07 
431 1 0.357139 0.107139 0.124978 55.845 3.13534e-07 
439 1 0.321395 3.98005e-05 0.125425 55.845 3.8273e-07 
440 1 0.321445 0.0356754 0.167022 55.845 1.51216e-07 
441 1 0.357102 0.0357135 0.125339 55.845 2.65726e-07 
442 1 0.357184 0.0713096 0.166743 55.845 2.43844e-07 
517 1 0.285714 0.107143 0.0416667 55.845 -1.60865e-08 
527 1 0.25 0 0.0416667 55.845 3.60328e-08 
529 1 0.285714 0.0357143 0.0416667 55.845 5.43458e-08 
530 1 0.285744 0.0715134 0.0825351 55.845 -3.69394e-07 
531 1 0.321429 0.0714286 0.0416667 55.845 -7.17226e-08 
532 1 0.321284 0.107248 0.0828131 55.845 -3.52107e-07 
533 1 0.357143 0.107143 0.0416667 55.845 3.79081e-08 
603 1 0.357143 0.0714286 0 55.845 9.02085e-08 
541 1 0.321429 0 0.0416667 55.845 -8.62153e-08 
542 1 0.321233 0.0356874 0.0826282 55.845 -3.67628e-07 
543 1 0.357143 0.0357143 0.0416667 55.845 -1.39352e-07 
544 1 0.357109 0.0714302 0.0826788 55.845 -3.49731e-07 
602 1 0.321429 0.0357143 0 55.845 8.43295e-08 
596 1 0.285714 0.0714286 0 55.845 2.24958e-07 
597 1 0.321429 0.107143 0 55.845 2.04905e-07 
612 1 0.464286 0.0357143 0 55.845 2.34721e-07 
611 1 0.428571 0 0 55.845 2.83875e-07 
610 1 0.464286 0.107143 0 55.845 -1.07251e-07 
609 1 0.428571 0.0714286 0 55.845 5.97915e-08 
608 1 0.392857 0.0357143 0 55.845 1.05447e-07 
341 1 0.392873 0.0713858 0.208115 55.845 -6.44718e-09 
343 1 0.428515 0.107197 0.208085 55.845 -8.67221e-08 
348 1 0.392917 -8.86041e-05 0.208328 55.845 1.09032e-07 
350 1 0.428506 0.0356237 0.208221 55.845 1.10719e-07 
352 1 0.464172 0.0714218 0.208253 55.845 1.58229e-08 
355 1 0.464269 -7.80157e-07 0.208229 55.845 1.9223e-07 
443 1 0.393001 0.0713402 0.125231 55.845 3.52424e-07 
444 1 0.392872 0.107052 0.166676 55.845 2.28835e-07 
445 1 0.428555 0.107103 0.125052 55.845 4.33716e-07 
604 1 0.392857 0.107143 0 55.845 2.95058e-08 
450 1 0.392976 -0.000117992 0.125366 55.845 3.03974e-07 
451 1 0.39292 0.0355987 0.166884 55.845 1.55852e-07 
452 1 0.428554 0.0356036 0.125299 55.845 3.92054e-07 
453 1 0.428557 0.071382 0.167013 55.845 1.28767e-07 
454 1 0.464189 0.0714894 0.125212 55.845 4.35372e-07 
455 1 0.464276 0.107107 0.166901 55.845 9.1147e-08 
456 1 0.428642 -6.44307e-05 0.166886 55.845 1.30398e-08 
457 1 0.464255 8.6772e-06 0.125179 55.845 3.75877e-07 
458 1 0.464204 0.0356663 0.166865 55.845 1.03162e-08 
545 1 0.392857 0.0714286 0.0416667 55.845 -2.62945e-08 
546 1 0.392914 0.107106 0.0826778 55.845 -2.90299e-07 
547 1 0.428571 0.107143 0.0416667 55.845 -3.34924e-08 
552 1 0.392857 0 0.0416667 55.845 -6.89492e-08 
553 1 0.392952 0.0356474 0.08257 55.845 -3.79147e-07 
554 1 0.428571 0.0357143 0.0416667 55.845 6.01721e-08 
555 1 0.428523 0.0714733 0.0824119 55.845 -3.34881e-07 
556 1 0.464286 0.0714286 0.0416667 55.845 2.65297e-08 
557 1 0.464266 0.10706 0.0826735 55.845 -3.04894e-07 
558 1 0.428562 5.92331e-06 0.0827504 55.845 -3.87395e-07 
559 1 0.464286 0 0.0416667 55.845 1.38644e-07 
560 1 0.464247 0.0357612 0.0827644 55.845 -3.49187e-07 
255 1 7.72341e-06 0.178727 0.208165 55.845 -8.53293e-08 
257 1 0.0357418 0.214346 0.208021 55.845 -1.66561e-07 
261 1 0.0356791 0.142969 0.208331 55.845 -1.1533e-07 
263 1 0.0713878 0.178749 0.208145 55.845 -1.39478e-07 
265 1 0.107155 0.214294 0.207991 55.845 1.13706e-08 
273 1 0.107089 0.142923 0.208005 55.845 -1.46088e-07 
357 1 -8.57995e-05 0.178508 0.125309 55.845 5.32264e-07 
358 1 -0.000215718 0.21436 0.166724 55.845 -3.76416e-08 
359 1 0.0355475 0.214347 0.125128 55.845 5.00737e-07 
360 1 0.0356735 0.250013 0.166891 55.845 1.00595e-07 
362 1 -5.41043e-05 0.142926 0.166914 55.845 -4.9005e-08 
363 1 0.035694 0.142888 0.125523 55.845 4.08571e-07 
364 1 0.0356529 0.178586 0.166773 55.845 -3.42629e-08 
365 1 0.0714287 0.178582 0.125254 55.845 4.18609e-07 
366 1 0.071299 0.214345 0.16665 55.845 3.81804e-08 
367 1 0.107063 0.214276 0.125181 55.845 4.49475e-07 
368 1 0.107281 0.250169 0.166857 55.845 2.91889e-08 
374 1 0.0714209 0.142904 0.166944 55.845 7.53195e-08 
375 1 0.107092 0.142781 0.125455 55.845 3.60524e-07 
376 1 0.107033 0.178597 0.166732 55.845 4.63053e-08 
459 1 0 0.178571 0.0416667 55.845 -6.70959e-08 
460 1 -8.22623e-05 0.214283 0.0827102 55.845 -3.64333e-07 
461 1 0.0357143 0.214286 0.0416667 55.845 5.07953e-08 
462 1 0.035741 0.249987 0.0826587 55.845 -1.98892e-07 
464 1 2.63753e-05 0.142771 0.0823987 55.845 -3.83707e-07 
465 1 0.0357143 0.142857 0.0416667 55.845 -2.11951e-07 
466 1 0.035798 0.178492 0.0827597 55.845 -4.00336e-07 
467 1 0.0714286 0.178571 0.0416667 55.845 -9.10129e-08 
468 1 0.0714065 0.214265 0.0825476 55.845 -2.74132e-07 
469 1 0.107143 0.214286 0.0416667 55.845 -2.53274e-08 
470 1 0.107103 0.249938 0.0825039 55.845 -4.4082e-07 
476 1 0.0714424 0.142858 0.0826226 55.845 -3.16581e-07 
477 1 0.107143 0.142857 0.0416667 55.845 -5.53293e-08 
478 1 0.107082 0.178593 0.0827695 55.845 -2.93219e-07 
561 1 0 0.214286 0 55.845 -1.5181e-07 
562 1 0.0357143 0.25 0 55.845 7.26517e-08 
563 1 0 0.142857 0 55.845 -2.19995e-07 
564 1 0.0357143 0.178571 0 55.845 -1.92524e-07 
565 1 0.0714286 0.214286 0 55.845 6.70079e-08 
566 1 0.107143 0.25 0 55.845 3.45907e-08 
569 1 0.0714286 0.142857 0 55.845 -6.12946e-08 
570 1 0.107143 0.178571 0 55.845 1.86756e-07 
275 1 0.14269 0.178526 0.208086 55.845 -2.26662e-08 
277 1 0.17851 0.214255 0.208072 55.845 1.80935e-07 
287 1 0.178479 0.142829 0.208236 55.845 -1.88461e-08 
289 1 0.214211 0.178538 0.208154 55.845 1.75076e-07 
291 1 0.249967 0.214285 0.208044 55.845 1.26508e-07 
301 1 0.25001 0.142892 0.207924 55.845 1.6138e-07 
377 1 0.142773 0.178413 0.125227 55.845 3.56331e-07 
378 1 0.142784 0.214332 0.166689 55.845 -3.54773e-09 
379 1 0.178685 0.214242 0.125405 55.845 2.9429e-07 
388 1 0.142759 0.142759 0.166993 55.845 1.09494e-07 
389 1 0.178479 0.142863 0.125187 55.845 2.27555e-07 
390 1 0.178438 0.178454 0.166739 55.845 4.86133e-08 
391 1 0.214279 0.178494 0.125102 55.845 2.2072e-07 
392 1 0.214332 0.214256 0.166954 55.845 -2.56774e-09 
393 1 0.250092 0.21435 0.125317 55.845 2.99965e-07 
402 1 0.214199 0.14289 0.166966 55.845 1.30065e-07 
403 1 0.249931 0.142819 0.125419 55.845 1.28287e-07 
404 1 0.249902 0.178597 0.167017 55.845 1.09915e-07 
479 1 0.142857 0.178571 0.0416667 55.845 7.08861e-08 
480 1 0.143027 0.214303 0.0825781 55.845 -5.32013e-07 
481 1 0.178571 0.214286 0.0416667 55.845 -2.5917e-08 
490 1 0.142898 0.142869 0.0826812 55.845 -3.01211e-07 
491 1 0.178571 0.142857 0.0416667 55.845 1.07217e-07 
492 1 0.178552 0.178619 0.0825656 55.845 -5.57106e-07 
493 1 0.214286 0.178571 0.0416667 55.845 1.23437e-08 
494 1 0.214271 0.214328 0.0827025 55.845 -5.77756e-07 
495 1 0.25 0.214286 0.0416667 55.845 -1.00975e-08 
504 1 0.214318 0.142839 0.0828344 55.845 -5.88238e-07 
505 1 0.25 0.142857 0.0416667 55.845 -5.73669e-08 
506 1 0.249945 0.178644 0.0828097 55.845 -5.57805e-07 
571 1 0.142857 0.214286 0 55.845 1.16192e-07 
576 1 0.142857 0.142857 0 55.845 3.11115e-07 
577 1 0.178571 0.178571 0 55.845 2.55545e-07 
578 1 0.214286 0.214286 0 55.845 2.37754e-07 
583 1 0.214286 0.142857 0 55.845 2.6084e-07 
584 1 0.25 0.178571 0 55.845 2.46526e-07 
303 1 0.285675 0.178421 0.208166 55.845 7.52578e-08 
305 1 0.321371 0.214208 0.208183 55.845 -4.40889e-08 
315 1 0.321469 0.142831 0.207964 55.845 -7.45568e-08 
317 1 0.357151 0.17854 0.207936 55.845 -1.67498e-07 
405 1 0.285598 0.178565 0.125163 55.845 2.23813e-07 
406 1 0.285703 0.214261 0.166905 55.845 7.10686e-08 
407 1 0.321386 0.214273 0.125172 55.845 3.23916e-07 
416 1 0.285851 0.142879 0.166953 55.845 1.74844e-07 
417 1 0.321329 0.142823 0.125139 55.845 2.57806e-07 
418 1 0.321317 0.178631 0.166719 55.845 1.35367e-07 
419 1 0.357216 0.178591 0.125001 55.845 3.82631e-07 
420 1 0.357198 0.214262 0.166738 55.845 1.05421e-07 
432 1 0.357169 0.143023 0.166655 55.845 2.07694e-07 
507 1 0.285714 0.178571 0.0416667 55.845 -6.5622e-08 
508 1 0.285765 0.214369 0.0825737 55.845 -3.82401e-07 
509 1 0.321429 0.214286 0.0416667 55.845 -1.19271e-07 
518 1 0.28571 0.142868 0.0827224 55.845 -4.91847e-07 
519 1 0.321429 0.142857 0.0416667 55.845 -8.06912e-10 
520 1 0.321428 0.178535 0.0825408 55.845 -3.63901e-07 
521 1 0.357143 0.178571 0.0416667 55.845 4.21485e-08 
522 1 0.357278 0.214374 0.0825741 55.845 -3.3865e-07 
534 1 0.357109 0.142762 0.0825783 55.845 -2.83915e-07 
585 1 0.285714 0.214286 0 55.845 2.52334e-07 
590 1 0.285714 0.142857 0 55.845 2.21726e-07 
591 1 0.321429 0.178571 0 55.845 1.86408e-07 
592 1 0.357143 0.214286 0 55.845 -2.49095e-09 
598 1 0.357143 0.142857 0 55.845 1.45602e-07 
319 1 0.392747 0.214288 0.208062 55.845 -1.25047e-07 
321 1 0.428512 0.249988 0.208042 55.845 -3.67615e-08 
331 1 0.392894 0.142796 0.207899 55.845 -2.07603e-07 
333 1 0.428513 0.178475 0.208085 55.845 -1.99474e-07 
335 1 0.464245 0.214219 0.208062 55.845 -1.36515e-07 
345 1 0.464263 0.142762 0.20796 55.845 -1.20482e-07 
606 1 0.464286 0.178571 0 55.845 -2.03927e-07 
421 1 0.393013 0.214438 0.124855 55.845 5.092e-07 
422 1 0.392912 0.249923 0.166886 55.845 1.05038e-07 
423 1 0.42862 0.250098 0.125095 55.845 6.11186e-07 
433 1 0.392889 0.142925 0.125188 55.845 4.58448e-07 
434 1 0.392943 0.178619 0.166681 55.845 1.30611e-07 
435 1 0.428628 0.178747 0.125076 55.845 5.53582e-07 
436 1 0.42855 0.214283 0.166872 55.845 9.25017e-08 
437 1 0.464128 0.214257 0.125472 55.845 6.65004e-07 
605 1 0.428571 0.142857 0 55.845 -1.37751e-07 
446 1 0.428473 0.142884 0.166762 55.845 1.3642e-07 
447 1 0.464407 0.142806 0.125413 55.845 5.19577e-07 
448 1 0.464257 0.178485 0.166779 55.845 8.9147e-08 
523 1 0.392857 0.214286 0.0416667 55.845 -1.13795e-08 
524 1 0.392856 0.250021 0.0826451 55.845 -3.11171e-07 
525 1 0.428571 0.25 0.0416667 55.845 7.6781e-08 
535 1 0.392857 0.142857 0.0416667 55.845 6.16737e-08 
536 1 0.39281 0.178526 0.082501 55.845 -2.92158e-07 
537 1 0.428571 0.178571 0.0416667 55.845 2.44959e-08 
538 1 0.428557 0.214313 0.0823854 55.845 -2.47656e-07 
539 1 0.464286 0.214286 0.0416667 55.845 1.347e-08 
548 1 0.4286 0.142914 0.0827942 55.845 -3.07935e-07 
549 1 0.464286 0.142857 0.0416667 55.845 -1.54381e-07 
550 1 0.464293 0.178527 0.0827892 55.845 -2.23479e-07 
593 1 0.392857 0.25 0 55.845 -8.56012e-08 
599 1 0.392857 0.178571 0 55.845 -3.49181e-08 
600 1 0.428571 0.214286 0 55.845 -1.09053e-07 
3 1 -6.39271e-05 0.107162 0.456085 55.845 2.38771e-07 
7 1 3.1973e-05 0.0357217 0.45614 55.845 4.77339e-07 
8 1 0.0356538 0.0715239 0.456214 55.845 2.94969e-07 
9 1 0.0714415 0.107066 0.455931 55.845 2.24613e-07 
13 1 0.0356437 -2.75284e-05 0.456173 55.845 5.51715e-07 
14 1 0.0715083 0.035702 0.456378 55.845 3.68384e-07 
15 1 0.107087 0.0713995 0.455999 55.845 2.61554e-07 
20 1 0.107122 5.37151e-05 0.456271 55.845 3.68983e-07 
55 1 3.6341e-05 0.107078 0.373161 55.845 7.60798e-11 
63 1 2.84434e-05 0.0356681 0.373586 55.845 -7.57096e-08 
64 1 -4.48657e-05 0.0714143 0.414317 55.845 -3.10186e-08 
65 1 0.0356605 0.0714829 0.373242 55.845 -1.12183e-07 
66 1 0.0357129 0.107165 0.414172 55.845 9.89094e-09 
67 1 0.0714853 0.107241 0.373097 55.845 -8.23794e-08 
74 1 5.1576e-05 -0.00012668 0.414298 55.845 -3.00147e-08 
75 1 0.0356286 6.77896e-06 0.373319 55.845 -6.57657e-08 
76 1 0.0356985 0.0357343 0.414154 55.845 5.18589e-08 
77 1 0.0714235 0.0358255 0.373309 55.845 -7.35405e-08 
78 1 0.0713443 0.071493 0.41421 55.845 2.0439e-08 
79 1 0.107149 0.0713769 0.373121 55.845 -1.10827e-07 
80 1 0.107127 0.107047 0.414084 55.845 2.05857e-08 
88 1 0.0714136 -3.38323e-05 0.414302 55.845 1.17947e-07 
89 1 0.10707 0.000109338 0.373297 55.845 -6.21348e-09 
90 1 0.107119 0.0357264 0.41429 55.845 7.78129e-08 
157 1 -0.000115982 0.107127 0.291525 55.845 -1.12002e-09 
165 1 -2.89495e-06 0.0355664 0.291561 55.845 -1.21822e-07 
166 1 -0.000181921 0.0713431 0.333066 55.845 -2.5843e-07 
167 1 0.0356779 0.0714393 0.291563 55.845 -1.29303e-07 
168 1 0.0357479 0.107126 0.333024 55.845 -5.99737e-08 
169 1 0.0714511 0.107162 0.291237 55.845 -1.03406e-07 
176 1 -0.000103538 -4.40257e-05 0.332934 55.845 -1.91958e-07 
177 1 0.03569 -1.22391e-05 0.291424 55.845 -1.84189e-07 
178 1 0.0356965 0.0356493 0.332882 55.845 -2.81198e-07 
179 1 0.0713626 0.0357538 0.29135 55.845 -1.12425e-07 
180 1 0.0713734 0.0714727 0.332816 55.845 -1.04664e-07 
181 1 0.107125 0.0713756 0.291416 55.845 -4.35604e-08 
182 1 0.107267 0.107227 0.332824 55.845 -7.03845e-08 
190 1 0.0712596 -2.60938e-05 0.333049 55.845 -1.92784e-07 
191 1 0.107092 -1.81491e-05 0.291368 55.845 2.29574e-10 
192 1 0.107098 0.0357457 0.332905 55.845 -7.4327e-08 
268 1 -0.000182288 0.0713508 0.24969 55.845 -2.36796e-07 
270 1 0.0356566 0.107133 0.249587 55.845 -1.34543e-07 
278 1 -6.53737e-05 1.09918e-05 0.249639 55.845 9.7789e-08 
280 1 0.0356859 0.0357207 0.249432 55.845 -1.67029e-07 
282 1 0.0713965 0.0713596 0.24949 55.845 -6.48816e-08 
284 1 0.10723 0.107199 0.24923 55.845 3.4779e-08 
292 1 0.0715137 6.75324e-05 0.249378 55.845 -1.81142e-07 
294 1 0.107189 0.0356897 0.249558 55.845 -5.55485e-08 
16 1 0.142829 0.107182 0.455905 55.845 4.3754e-07 
21 1 0.14295 0.0356949 0.456112 55.845 1.82218e-07 
22 1 0.178571 0.0713285 0.456012 55.845 3.1985e-07 
23 1 0.214286 0.106999 0.456203 55.845 5.33737e-07 
27 1 0.178455 -1.15325e-05 0.455977 55.845 1.67485e-07 
28 1 0.214219 0.0356387 0.456067 55.845 3.43455e-07 
29 1 0.249877 0.07141 0.456063 55.845 5.52542e-07 
81 1 0.142948 0.107207 0.373226 55.845 -2.29576e-07 
91 1 0.142861 0.0357178 0.373086 55.845 -5.45209e-08 
92 1 0.142791 0.0714662 0.414076 55.845 -1.17733e-08 
93 1 0.178568 0.0714752 0.37313 55.845 -1.65296e-07 
94 1 0.178617 0.107136 0.414221 55.845 1.32021e-08 
95 1 0.214361 0.107172 0.373164 55.845 -1.43398e-07 
102 1 0.14273 1.91485e-05 0.414204 55.845 6.08915e-09 
103 1 0.178495 -6.8521e-05 0.373154 55.845 -7.31221e-08 
104 1 0.178527 0.0357148 0.414041 55.845 -2.93199e-08 
105 1 0.214183 0.035752 0.373132 55.845 -1.11369e-07 
106 1 0.214245 0.0713841 0.414193 55.845 -1.09888e-08 
107 1 0.249888 0.0714812 0.373045 55.845 -5.9761e-08 
108 1 0.24993 0.107018 0.414404 55.845 -5.8141e-08 
118 1 0.214232 3.7053e-05 0.414219 55.845 7.55413e-09 
120 1 0.24997 0.0357129 0.414332 55.845 6.16024e-08 
183 1 0.142853 0.10722 0.291241 55.845 -1.78314e-07 
193 1 0.142847 0.0356994 0.291351 55.845 1.09589e-07 
194 1 0.142937 0.0715196 0.332839 55.845 -1.17495e-07 
195 1 0.178477 0.0714089 0.291163 55.845 1.57098e-08 
196 1 0.178596 0.107244 0.332745 55.845 -3.06901e-07 
197 1 0.214306 0.107104 0.29127 55.845 4.87922e-08 
204 1 0.142748 7.38036e-05 0.33279 55.845 -3.68304e-08 
205 1 0.178437 -1.14914e-05 0.291531 55.845 2.88151e-08 
206 1 0.178453 0.0358128 0.332699 55.845 -1.10299e-07 
207 1 0.21425 0.0356951 0.291442 55.845 -1.53838e-08 
208 1 0.214142 0.0714376 0.332906 55.845 -3.11478e-07 
209 1 0.249905 0.0715286 0.291449 55.845 2.25142e-08 
210 1 0.249945 0.10706 0.332735 55.845 -3.3091e-07 
220 1 0.214162 -5.0383e-05 0.332732 55.845 -1.14429e-07 
222 1 0.249982 0.0358155 0.332917 55.845 -2.86097e-07 
296 1 0.142908 0.0714996 0.249618 55.845 4.20096e-08 
298 1 0.178458 0.10728 0.249597 55.845 4.32649e-08 
306 1 0.142727 6.45291e-05 0.249478 55.845 -1.35042e-07 
308 1 0.178683 0.0357064 0.249511 55.845 -6.56651e-08 
310 1 0.214268 0.0714897 0.24952 55.845 -4.56134e-08 
312 1 0.250085 0.107159 0.249337 55.845 1.34216e-07 
322 1 0.214122 -6.5337e-05 0.249504 55.845 -1.99389e-07 
324 1 0.249985 0.0356818 0.249501 55.845 -1.95817e-07 
30 1 0.285695 0.107205 0.45621 55.845 6.00093e-07 
35 1 0.249919 -4.52497e-05 0.45603 55.845 3.37487e-07 
36 1 0.28562 0.0357213 0.45622 55.845 4.60105e-07 
37 1 0.321305 0.0714703 0.456285 55.845 4.96053e-07 
38 1 0.357233 0.107224 0.456259 55.845 4.92118e-07 
42 1 0.321481 2.26861e-05 0.456197 55.845 3.45532e-07 
43 1 0.357103 0.0358032 0.456195 55.845 3.57093e-07 
109 1 0.285697 0.107118 0.373169 55.845 7.36194e-09 
119 1 0.249897 5.69526e-05 0.373212 55.845 -8.84691e-08 
121 1 0.285608 0.0357744 0.373238 55.845 -6.29817e-08 
122 1 0.285537 0.0715141 0.414167 55.845 -7.57345e-09 
123 1 0.32132 0.0714585 0.373333 55.845 -6.13961e-08 
124 1 0.321349 0.107263 0.414439 55.845 -7.2448e-08 
125 1 0.356992 0.107165 0.373294 55.845 -5.91362e-08 
133 1 0.321326 8.46677e-05 0.373238 55.845 -1.18031e-07 
134 1 0.321282 0.0357952 0.414399 55.845 8.58469e-08 
135 1 0.357047 0.0358947 0.373341 55.845 -1.04418e-07 
136 1 0.357042 0.0714743 0.414267 55.845 2.91771e-09 
211 1 0.28578 0.10714 0.291326 55.845 5.29382e-08 
221 1 0.249914 1.72532e-05 0.29146 55.845 -6.05085e-08 
223 1 0.285683 0.0357648 0.29138 55.845 -7.36522e-08 
224 1 0.285698 0.0715112 0.332767 55.845 -3.32276e-07 
225 1 0.321446 0.0714879 0.291486 55.845 -1.92026e-08 
226 1 0.321503 0.107126 0.33295 55.845 -2.95769e-07 
227 1 0.357118 0.107228 0.291333 55.845 -8.08762e-08 
235 1 0.321333 4.5996e-05 0.291449 55.845 -3.90573e-09 
236 1 0.321291 0.0357333 0.332888 55.845 -1.5999e-07 
237 1 0.357052 0.0357947 0.291514 55.845 5.2463e-08 
238 1 0.356989 0.0715084 0.332824 55.845 -2.01241e-07 
326 1 0.285698 0.0714358 0.249656 55.845 -3.17078e-08 
328 1 0.321449 0.107084 0.249482 55.845 7.67941e-08 
338 1 0.321441 0.0356894 0.249661 55.845 1.22582e-08 
340 1 0.357146 0.0714117 0.249521 55.845 6.73682e-08 
44 1 0.392808 0.0713915 0.456187 55.845 3.42287e-07 
45 1 0.42852 0.107132 0.455899 55.845 3.00132e-07 
47 1 0.392871 0.000100762 0.456098 55.845 4.72288e-07 
48 1 0.42859 0.0357645 0.456021 55.845 4.15528e-07 
49 1 0.464289 0.0715372 0.455959 55.845 3.02463e-07 
50 1 0.464254 0.000145926 0.456116 55.845 4.34367e-07 
137 1 0.39284 0.0713639 0.373432 55.845 -8.10945e-08 
138 1 0.392771 0.107023 0.41419 55.845 7.80898e-09 
139 1 0.42851 0.107139 0.373474 55.845 8.7075e-08 
144 1 0.392795 7.56861e-05 0.373352 55.845 -1.89142e-07 
145 1 0.392813 0.0357996 0.414186 55.845 1.2464e-07 
146 1 0.428469 0.0356266 0.373274 55.845 -1.62684e-07 
147 1 0.428489 0.0713142 0.414281 55.845 2.94889e-08 
148 1 0.464219 0.0713564 0.373187 55.845 -8.1951e-08 
149 1 0.464198 0.107126 0.414108 55.845 3.19644e-08 
150 1 0.428549 -8.80193e-05 0.413962 55.845 1.76403e-07 
151 1 0.464234 5.21097e-05 0.373239 55.845 -2.75684e-07 
152 1 0.464302 0.0356731 0.414156 55.845 1.68698e-07 
239 1 0.39276 0.0716572 0.291613 55.845 5.27865e-08 
240 1 0.392778 0.107122 0.332962 55.845 -1.40757e-07 
241 1 0.428542 0.107042 0.2915 55.845 7.54497e-08 
246 1 0.39284 1.70953e-05 0.291809 55.845 2.58486e-08 
247 1 0.392694 0.0358102 0.332974 55.845 -1.87012e-07 
248 1 0.428519 0.0357546 0.291517 55.845 6.24372e-08 
249 1 0.428505 0.0714304 0.332806 55.845 -1.90716e-07 
250 1 0.464233 0.0713644 0.291485 55.845 1.09112e-07 
251 1 0.464248 0.107094 0.332887 55.845 1.09974e-08 
252 1 0.428519 2.07426e-05 0.333123 55.845 -2.60285e-07 
253 1 0.464223 3.20316e-05 0.291373 55.845 1.02402e-07 
254 1 0.464237 0.0355781 0.332904 55.845 -2.4804e-07 
342 1 0.392846 0.107174 0.249457 55.845 1.36494e-08 
349 1 0.392724 0.0357296 0.249781 55.845 2.37912e-08 
351 1 0.428364 0.0715598 0.249444 55.845 -1.0574e-07 
353 1 0.464313 0.107196 0.249637 55.845 -1.10489e-07 
354 1 0.428453 9.14403e-06 0.249652 55.845 -1.03194e-07 
356 1 0.464163 0.0357495 0.24973 55.845 -2.12152e-07 
1 1 6.17651e-05 0.178428 0.456075 55.845 1.00796e-07 
2 1 0.0357501 0.214129 0.455922 55.845 2.05584e-07 
4 1 0.0358015 0.142906 0.456004 55.845 1.69794e-07 
5 1 0.0713324 0.178457 0.456174 55.845 2.89342e-07 
6 1 0.107054 0.214249 0.456031 55.845 3.34624e-07 
10 1 0.107114 0.142846 0.456129 55.845 4.5128e-07 
51 1 -2.73227e-05 0.178495 0.372975 55.845 9.91278e-08 
52 1 -3.83631e-05 0.214081 0.413968 55.845 4.61692e-08 
53 1 0.035658 0.214234 0.372931 55.845 -4.40365e-08 
54 1 0.0356119 0.249895 0.414122 55.845 3.52991e-09 
56 1 5.37811e-05 0.142831 0.414002 55.845 4.77086e-08 
57 1 0.0356988 0.14289 0.37319 55.845 5.75373e-08 
58 1 0.035727 0.178529 0.414169 55.845 6.94772e-08 
59 1 0.0712725 0.178536 0.373181 55.845 -8.66153e-08 
60 1 0.071381 0.21419 0.414029 55.845 3.57139e-08 
61 1 0.107113 0.214225 0.373356 55.845 -2.1361e-07 
62 1 0.107053 0.249883 0.414303 55.845 6.72901e-08 
68 1 0.071419 0.142864 0.414074 55.845 5.63566e-08 
69 1 0.10725 0.142905 0.37315 55.845 -1.87003e-07 
70 1 0.107049 0.178488 0.414263 55.845 7.64509e-08 
153 1 -2.30597e-05 0.178755 0.291224 55.845 1.70418e-07 
154 1 3.34636e-05 0.214402 0.332672 55.845 -6.2133e-08 
155 1 0.0357587 0.214373 0.291218 55.845 -3.51627e-08 
156 1 0.0355665 0.250117 0.332697 55.845 -2.45966e-07 
158 1 6.69104e-05 0.142845 0.332802 55.845 6.76469e-09 
159 1 0.0357681 0.14292 0.291495 55.845 9.01618e-08 
160 1 0.0358231 0.178564 0.332715 55.845 5.13713e-08 
161 1 0.0714975 0.178554 0.291388 55.845 -1.23463e-07 
162 1 0.071328 0.214327 0.332723 55.845 -1.1443e-07 
163 1 0.107142 0.214334 0.291449 55.845 -1.455e-07 
164 1 0.107064 0.250045 0.333072 55.845 -9.94919e-08 
170 1 0.0714242 0.142835 0.332834 55.845 5.92672e-08 
171 1 0.107165 0.142927 0.291337 55.845 -2.56515e-07 
172 1 0.107197 0.178674 0.332921 55.845 -1.01422e-07 
256 1 -0.000102502 0.214349 0.249513 55.845 -3.37609e-07 
258 1 0.035687 0.249969 0.249474 55.845 -2.89256e-07 
260 1 -9.311e-05 0.142894 0.24964 55.845 -3.1247e-07 
262 1 0.0356855 0.178617 0.249444 55.845 -2.14129e-07 
264 1 0.0714804 0.214395 0.249562 55.845 -1.71637e-07 
266 1 0.107154 0.24999 0.249563 55.845 -4.4263e-08 
272 1 0.071362 0.142921 0.249457 55.845 -2.10141e-08 
274 1 0.107141 0.178554 0.249452 55.845 -3.85425e-08 
11 1 0.142881 0.178611 0.456134 55.845 5.03726e-07 
12 1 0.178597 0.214237 0.456352 55.845 4.2335e-07 
17 1 0.178567 0.142875 0.456242 55.845 5.5153e-07 
18 1 0.214137 0.178557 0.45609 55.845 5.16067e-07 
19 1 0.249959 0.214259 0.456073 55.845 5.88334e-07 
24 1 0.25002 0.142888 0.456135 55.845 5.47679e-07 
71 1 0.142798 0.178692 0.373386 55.845 -3.08667e-07 
72 1 0.142652 0.214291 0.414345 55.845 1.34629e-07 
73 1 0.178565 0.214332 0.373359 55.845 -2.91116e-07 
82 1 0.142847 0.142935 0.41422 55.845 8.36602e-08 
83 1 0.178764 0.14284 0.373084 55.845 -3.05735e-07 
84 1 0.17856 0.17859 0.414289 55.845 9.01465e-08 
85 1 0.214207 0.178453 0.373446 55.845 -2.53399e-07 
86 1 0.214163 0.214246 0.414332 55.845 1.15754e-07 
87 1 0.249868 0.214183 0.373213 55.845 -2.4574e-07 
96 1 0.214285 0.142764 0.414489 55.845 -3.88736e-08 
97 1 0.25008 0.142675 0.373204 55.845 -9.07135e-08 
98 1 0.249893 0.178525 0.414308 55.845 -5.17582e-08 
173 1 0.14289 0.178611 0.291386 55.845 -2.31374e-07 
174 1 0.142787 0.214365 0.333164 55.845 -1.51235e-07 
175 1 0.17849 0.214281 0.291508 55.845 7.07852e-09 
184 1 0.142956 0.143079 0.333089 55.845 -2.6733e-07 
185 1 0.178625 0.142998 0.291658 55.845 -1.3356e-07 
186 1 0.178532 0.178702 0.33298 55.845 -3.15084e-07 
187 1 0.21422 0.178601 0.291561 55.845 2.73128e-08 
188 1 0.21433 0.214154 0.33304 55.845 -2.93814e-07 
189 1 0.249916 0.214149 0.291547 55.845 -7.19317e-08 
198 1 0.214321 0.142842 0.3328 55.845 -3.07651e-07 
199 1 0.250054 0.142852 0.291364 55.845 1.81042e-07 
200 1 0.249973 0.178475 0.332987 55.845 -3.0845e-07 
276 1 0.142758 0.21434 0.249621 55.845 -1.90802e-10 
286 1 0.142861 0.142986 0.249615 55.845 -2.88216e-08 
288 1 0.1786 0.178622 0.249577 55.845 6.43046e-08 
290 1 0.214227 0.214359 0.249421 55.845 1.80614e-10 
300 1 0.214205 0.142859 0.249624 55.845 1.80091e-07 
302 1 0.250017 0.178644 0.249543 55.845 2.19949e-07 
25 1 0.285716 0.17857 0.456171 55.845 5.88959e-07 
26 1 0.321405 0.214225 0.456055 55.845 4.37483e-07 
31 1 0.321485 0.14295 0.456272 55.845 6.14755e-07 
32 1 0.357197 0.178599 0.455979 55.845 4.37426e-07 
99 1 0.285698 0.178531 0.373325 55.845 -1.11869e-07 
100 1 0.285613 0.214132 0.414233 55.845 -4.43174e-08 
101 1 0.321238 0.214268 0.373087 55.845 -1.41686e-07 
110 1 0.28575 0.142717 0.414158 55.845 -1.49451e-07 
111 1 0.321465 0.142871 0.373195 55.845 -7.66061e-08 
112 1 0.321532 0.178517 0.414028 55.845 -7.22737e-08 
113 1 0.357182 0.178456 0.373328 55.845 -6.70608e-08 
114 1 0.357075 0.214328 0.414095 55.845 3.8247e-08 
126 1 0.357292 0.142915 0.414311 55.845 -8.2757e-09 
201 1 0.285646 0.178592 0.291206 55.845 -2.99397e-08 
202 1 0.285595 0.214031 0.332707 55.845 -2.36269e-07 
203 1 0.321277 0.214238 0.291359 55.845 -1.19852e-07 
212 1 0.285812 0.142906 0.332558 55.845 -2.87627e-07 
213 1 0.321495 0.142838 0.291556 55.845 -7.49208e-08 
214 1 0.321442 0.178471 0.332851 55.845 -2.25374e-07 
215 1 0.357069 0.178523 0.291306 55.845 -1.34982e-07 