ITEM: TIMESTEP
3000
ITEM: NUMBER OF ATOMS
5880
ITEM: BOX BOUNDS pp pp ff
-27.9644 27.9644
-27.9644 27.9644
0 34.092
ITEM: ATOMS id type xs ys zs mass q 
259 1 7.69611e-05 0.1071 0.208566 55.845 -6.79049e-07 
267 1 7.90219e-05 0.0357003 0.208645 55.845 1.62075e-07 
269 1 0.0356832 0.0715094 0.208614 55.845 2.47482e-07 
271 1 0.0714274 0.107156 0.208581 55.845 -2.23111e-07 
279 1 0.0357584 2.38107e-05 0.208526 55.845 1.77929e-07 
281 1 0.0714427 0.0357186 0.208663 55.845 -1.12704e-07 
283 1 0.107078 0.0714523 0.208562 55.845 3.19617e-08 
293 1 0.107163 3.8258e-05 0.208641 55.845 -8.58082e-07 
361 1 -3.341e-05 0.107128 0.125374 55.845 2.94837e-07 
369 1 4.86401e-05 0.0357079 0.125517 55.845 3.02298e-07 
370 1 5.09296e-05 0.0714097 0.167291 55.845 -3.29583e-07 
371 1 0.035721 0.0714073 0.12541 55.845 4.84852e-08 
372 1 0.0357202 0.107145 0.167285 55.845 5.28539e-07 
373 1 0.0714505 0.107148 0.125413 55.845 8.23818e-07 
380 1 -3.7265e-05 8.51089e-07 0.16746 55.845 7.66222e-07 
381 1 0.0357012 -9.83228e-05 0.125444 55.845 1.72786e-07 
382 1 0.0357252 0.0357333 0.167371 55.845 4.73162e-08 
383 1 0.0713898 0.0357155 0.125375 55.845 -2.68836e-07 
384 1 0.071365 0.0714859 0.167463 55.845 -9.00112e-07 
385 1 0.1071 0.0714325 0.125392 55.845 -3.80995e-08 
386 1 0.107142 0.107143 0.167438 55.845 7.33233e-07 
394 1 0.0713696 9.78245e-05 0.167374 55.845 5.6904e-07 
395 1 0.107096 -4.51567e-05 0.125478 55.845 -3.36763e-07 
396 1 0.107176 0.0357199 0.16734 55.845 -3.30109e-07 
463 1 0 0.107143 0.0416667 55.845 5.52628e-07 
471 1 0 0.0357143 0.0416667 55.845 5.11053e-07 
472 1 5.70975e-05 0.0713912 0.0835149 55.845 4.21755e-07 
473 1 0.0357143 0.0714286 0.0416667 55.845 8.17527e-07 
474 1 0.0357781 0.107146 0.0835417 55.845 -6.25096e-07 
475 1 0.0714286 0.107143 0.0416667 55.845 1.76617e-07 
482 1 -2.2952e-05 -1.55678e-05 0.0834625 55.845 -4.69285e-07 
483 1 0.0357143 0 0.0416667 55.845 2.6185e-07 
484 1 0.035746 0.0356465 0.0834497 55.845 -5.82577e-07 
485 1 0.0714286 0.0357143 0.0416667 55.845 6.74153e-07 
486 1 0.0714622 0.0713878 0.0835308 55.845 8.68212e-08 
487 1 0.107143 0.0714286 0.0416667 55.845 2.4918e-07 
488 1 0.107126 0.107189 0.083599 55.845 -1.08011e-06 
496 1 0.0714099 -6.08474e-05 0.083448 55.845 -8.29674e-07 
497 1 0.107143 0 0.0416667 55.845 8.27023e-07 
498 1 0.107124 0.0356423 0.0835082 55.845 -2.47198e-07 
567 1 0 0.0714286 0 55.845 5.37282e-07 
568 1 0.0357143 0.107143 0 55.845 -1.97059e-07 
572 1 0 0 0 55.845 -1.16657e-06 
573 1 0.0357143 0.0357143 0 55.845 -2.65274e-07 
574 1 0.0714286 0.0714286 0 55.845 1.35117e-07 
575 1 0.107143 0.107143 0 55.845 -3.29409e-07 
579 1 0.0714286 0 0 55.845 -5.91762e-08 
580 1 0.107143 0.0357143 0 55.845 7.54312e-08 
285 1 0.1428 0.107078 0.208628 55.845 -2.36325e-07 
295 1 0.1428 0.0357203 0.208743 55.845 -4.19855e-07 
297 1 0.178555 0.0713043 0.208601 55.845 -2.71106e-07 
299 1 0.214267 0.107085 0.208558 55.845 -1.22206e-06 
307 1 0.178556 3.27466e-05 0.208658 55.845 -7.27357e-07 
309 1 0.214166 0.0357596 0.20872 55.845 -8.21885e-07 
311 1 0.249977 0.0713463 0.208695 55.845 -3.0996e-07 
387 1 0.142934 0.10716 0.125316 55.845 3.67333e-07 
397 1 0.14283 0.035758 0.12536 55.845 5.51221e-08 
398 1 0.142805 0.071398 0.167304 55.845 2.18673e-07 
399 1 0.178558 0.0714438 0.125346 55.845 1.96587e-07 
400 1 0.178578 0.107083 0.167312 55.845 1.28621e-06 
401 1 0.214312 0.107171 0.125426 55.845 -5.98398e-07 
408 1 0.142808 2.41902e-05 0.167456 55.845 2.40599e-07 
409 1 0.178496 -1.49079e-06 0.12546 55.845 4.54292e-07 
410 1 0.178523 0.0356436 0.167271 55.845 -9.95286e-08 
411 1 0.214247 0.0357169 0.125423 55.845 -2.30216e-07 
412 1 0.214235 0.0714308 0.167287 55.845 1.58301e-07 
413 1 0.250025 0.0714613 0.125505 55.845 -1.07844e-06 
414 1 0.25002 0.107138 0.167389 55.845 9.93882e-07 
424 1 0.214235 -2.05027e-05 0.167454 55.845 1.95698e-07 
426 1 0.249947 0.0357655 0.167371 55.845 3.12541e-07 
489 1 0.142857 0.107143 0.0416667 55.845 1.83649e-07 
499 1 0.142857 0.0357143 0.0416667 55.845 4.11254e-07 
500 1 0.142808 0.071388 0.083414 55.845 5.92476e-08 
501 1 0.178571 0.0714286 0.0416667 55.845 -2.37637e-07 
502 1 0.178591 0.107168 0.0833951 55.845 -6.72854e-07 
503 1 0.214286 0.107143 0.0416667 55.845 3.78467e-07 
510 1 0.142891 -4.66968e-05 0.083427 55.845 2.22888e-07 
511 1 0.178571 0 0.0416667 55.845 3.31249e-07 
512 1 0.178595 0.0356959 0.0834201 55.845 -4.35972e-07 
513 1 0.214286 0.0357143 0.0416667 55.845 -1.71583e-07 
514 1 0.214344 0.0714857 0.0835168 55.845 5.29929e-07 
515 1 0.25 0.0714286 0.0416667 55.845 2.06855e-07 
516 1 0.250018 0.1071 0.0834393 55.845 3.19014e-07 
526 1 0.21432 -4.31957e-05 0.0835484 55.845 -7.67267e-07 
528 1 0.249943 0.0357066 0.0834617 55.845 -3.61341e-07 
581 1 0.142857 0.0714286 0 55.845 -4.69396e-07 
582 1 0.178571 0.107143 0 55.845 -3.58327e-07 
586 1 0.142857 0 0 55.845 1.78585e-08 
587 1 0.178571 0.0357143 0 55.845 -4.71218e-07 
588 1 0.214286 0.0714286 0 55.845 2.02265e-07 
589 1 0.25 0.107143 0 55.845 2.03722e-07 
594 1 0.214286 0 0 55.845 -2.86245e-07 
595 1 0.25 0.0357143 0 55.845 8.88725e-08 
313 1 0.285719 0.107036 0.208671 55.845 -1.36736e-06 
323 1 0.249954 1.07705e-05 0.208605 55.845 -7.64588e-07 
325 1 0.285728 0.0357616 0.208608 55.845 2.25804e-08 
327 1 0.321478 0.0714354 0.208523 55.845 2.17031e-07 
329 1 0.357219 0.107207 0.208464 55.845 -9.08428e-07 
337 1 0.321419 4.43315e-05 0.208685 55.845 -9.02596e-07 
339 1 0.35726 0.035713 0.208472 55.845 -4.33229e-07 
415 1 0.285753 0.107135 0.12534 55.845 -2.96223e-07 
425 1 0.250005 2.9118e-05 0.125512 55.845 -4.43713e-07 
427 1 0.285734 0.0357031 0.125411 55.845 7.90824e-09 
428 1 0.28572 0.0713648 0.167398 55.845 4.83999e-07 
429 1 0.321392 0.0714568 0.125397 55.845 2.17776e-07 
430 1 0.321385 0.107136 0.167351 55.845 5.47542e-07 
431 1 0.357241 0.107149 0.125447 55.845 -2.76314e-07 
439 1 0.321412 2.62217e-05 0.125441 55.845 3.95769e-08 
440 1 0.321398 0.0356756 0.167453 55.845 6.14666e-07 
441 1 0.357152 0.0356751 0.125334 55.845 8.57838e-08 
442 1 0.357125 0.0714193 0.167185 55.845 9.04044e-08 
517 1 0.285714 0.107143 0.0416667 55.845 2.1964e-07 
527 1 0.25 0 0.0416667 55.845 4.76526e-07 
529 1 0.285714 0.0357143 0.0416667 55.845 1.18351e-07 
530 1 0.285702 0.0714009 0.0835287 55.845 1.87546e-07 
531 1 0.321429 0.0714286 0.0416667 55.845 1.39848e-08 
532 1 0.321556 0.107163 0.0834514 55.845 -4.30259e-07 
533 1 0.357143 0.107143 0.0416667 55.845 2.36872e-07 
603 1 0.357143 0.0714286 0 55.845 -3.66586e-07 
541 1 0.321429 0 0.0416667 55.845 4.55402e-07 
542 1 0.3214 0.035668 0.0834563 55.845 -8.07143e-07 
543 1 0.357143 0.0357143 0.0416667 55.845 3.81742e-07 
544 1 0.357157 0.0714117 0.0834855 55.845 -3.09904e-07 
602 1 0.321429 0.0357143 0 55.845 -2.1487e-07 
596 1 0.285714 0.0714286 0 55.845 2.50427e-07 
597 1 0.321429 0.107143 0 55.845 -3.24759e-07 
612 1 0.464286 0.0357143 0 55.845 -3.44822e-07 
611 1 0.428571 0 0 55.845 3.82412e-07 
610 1 0.464286 0.107143 0 55.845 1.66095e-07 
609 1 0.428571 0.0714286 0 55.845 -3.68824e-07 
608 1 0.392857 0.0357143 0 55.845 -1.41208e-07 
341 1 0.392915 0.0713903 0.208602 55.845 -2.81019e-07 
343 1 0.42866 0.107117 0.20864 55.845 -1.67779e-06 
348 1 0.392934 2.85032e-05 0.208536 55.845 -9.84213e-07 
350 1 0.428649 0.0357016 0.208576 55.845 -8.79131e-07 
352 1 0.46431 0.0714064 0.208613 55.845 -8.97707e-07 
355 1 0.464295 9.47194e-05 0.208513 55.845 -1.34704e-06 
443 1 0.392894 0.0713685 0.125392 55.845 -3.64071e-08 
444 1 0.392941 0.10703 0.167382 55.845 2.57509e-07 
445 1 0.42857 0.107072 0.125449 55.845 -3.18526e-07 
604 1 0.392857 0.107143 0 55.845 -2.82464e-07 
450 1 0.392881 2.95502e-05 0.125412 55.845 -8.0581e-07 
451 1 0.392879 0.0357275 0.167253 55.845 5.91522e-07 
452 1 0.428602 0.0357239 0.125335 55.845 -3.76294e-07 
453 1 0.42864 0.0714438 0.167469 55.845 7.25474e-07 
454 1 0.464336 0.0714842 0.125342 55.845 -2.98908e-07 
455 1 0.464275 0.107189 0.167279 55.845 3.72027e-07 
456 1 0.428558 1.83413e-05 0.16727 55.845 9.6086e-07 
457 1 0.464316 -2.45875e-06 0.12542 55.845 -9.87799e-07 
458 1 0.464382 0.0356966 0.167256 55.845 1.97308e-06 
545 1 0.392857 0.0714286 0.0416667 55.845 3.51109e-07 
546 1 0.392915 0.10716 0.0834694 55.845 -2.9849e-07 
547 1 0.428571 0.107143 0.0416667 55.845 6.37873e-07 
552 1 0.392857 0 0.0416667 55.845 2.9977e-07 
553 1 0.392884 0.0356559 0.0834501 55.845 -2.70509e-07 
554 1 0.428571 0.0357143 0.0416667 55.845 4.74162e-07 
555 1 0.428618 0.0714473 0.0834461 55.845 2.19695e-07 
556 1 0.464286 0.0714286 0.0416667 55.845 3.03292e-07 
557 1 0.464214 0.107185 0.0834112 55.845 -2.82726e-07 
558 1 0.428631 4.3631e-05 0.0834503 55.845 -4.29065e-07 
559 1 0.464286 0 0.0416667 55.845 -1.39677e-07 
560 1 0.464362 0.0357239 0.0834771 55.845 -2.61555e-07 
255 1 3.22644e-06 0.178584 0.208548 55.845 -8.00537e-08 
257 1 0.035738 0.214275 0.208593 55.845 2.45505e-08 
261 1 0.0357234 0.142796 0.208636 55.845 -4.06016e-07 
263 1 0.0714593 0.178569 0.20852 55.845 5.47629e-08 
265 1 0.107154 0.214249 0.208532 55.845 3.99074e-08 
273 1 0.107156 0.142891 0.208568 55.845 -3.65122e-07 
357 1 -3.18001e-06 0.17862 0.125316 55.845 5.54686e-08 
358 1 -2.89742e-05 0.214315 0.167254 55.845 -2.75714e-07 
359 1 0.0357677 0.21424 0.125418 55.845 -1.63964e-07 
360 1 0.0357071 0.249958 0.167198 55.845 2.1342e-07 
362 1 2.75358e-05 0.142832 0.167433 55.845 3.61272e-07 
363 1 0.0356961 0.142857 0.125344 55.845 4.11059e-07 
364 1 0.0356907 0.178506 0.167317 55.845 -3.23682e-07 
365 1 0.0714115 0.178542 0.125337 55.845 -1.78639e-07 
366 1 0.0713799 0.214289 0.167264 55.845 -4.41857e-07 
367 1 0.107144 0.214259 0.125481 55.845 1.03271e-07 
368 1 0.107082 0.249946 0.167381 55.845 1.1362e-06 
374 1 0.0713174 0.142849 0.167452 55.845 -1.86068e-07 
375 1 0.107089 0.142911 0.125564 55.845 6.87996e-08 
376 1 0.107108 0.178527 0.167305 55.845 -3.87867e-07 
459 1 0 0.178571 0.0416667 55.845 3.72353e-07 
460 1 -4.49912e-05 0.214221 0.083425 55.845 3.43654e-07 
461 1 0.0357143 0.214286 0.0416667 55.845 3.96094e-07 
462 1 0.0356944 0.250051 0.0833728 55.845 -4.46834e-08 
464 1 -4.86909e-06 0.142941 0.0834826 55.845 -2.7017e-07 
465 1 0.0357143 0.142857 0.0416667 55.845 3.36599e-09 
466 1 0.0356847 0.178548 0.0833732 55.845 -3.207e-07 
467 1 0.0714286 0.178571 0.0416667 55.845 1.31652e-07 
468 1 0.0714293 0.214276 0.0835274 55.845 4.68147e-08 
469 1 0.107143 0.214286 0.0416667 55.845 1.3774e-07 
470 1 0.107153 0.249982 0.0834513 55.845 -5.80678e-07 
476 1 0.0713707 0.142904 0.0834286 55.845 -8.9613e-07 
477 1 0.107143 0.142857 0.0416667 55.845 9.47457e-07 
478 1 0.107163 0.178572 0.0835094 55.845 -5.64019e-07 
561 1 0 0.214286 0 55.845 -1.45582e-07 
562 1 0.0357143 0.25 0 55.845 -4.62116e-08 
563 1 0 0.142857 0 55.845 -5.63115e-07 
564 1 0.0357143 0.178571 0 55.845 -8.63494e-07 
565 1 0.0714286 0.214286 0 55.845 -3.19673e-07 
566 1 0.107143 0.25 0 55.845 -4.8953e-07 
569 1 0.0714286 0.142857 0 55.845 -2.25886e-07 
570 1 0.107143 0.178571 0 55.845 7.34749e-07 
275 1 0.142904 0.178501 0.208595 55.845 -1.04945e-07 
277 1 0.178583 0.214276 0.208636 55.845 -1.84943e-07 
287 1 0.178549 0.142832 0.208574 55.845 -4.50344e-07 
289 1 0.214276 0.178537 0.208667 55.845 -9.26974e-07 
291 1 0.250035 0.214295 0.208585 55.845 -7.85841e-08 
301 1 0.249992 0.142842 0.208613 55.845 -1.95528e-06 
377 1 0.142849 0.178612 0.125412 55.845 -7.53162e-07 
378 1 0.142827 0.2142 0.167279 55.845 3.73274e-07 
379 1 0.17862 0.21419 0.12537 55.845 -2.99813e-08 
388 1 0.142799 0.142788 0.167279 55.845 5.73059e-07 
389 1 0.178484 0.142852 0.12541 55.845 -8.88587e-07 
390 1 0.178512 0.178544 0.167355 55.845 3.83029e-07 
391 1 0.214248 0.178605 0.125435 55.845 -7.66351e-07 
392 1 0.214311 0.214328 0.167381 55.845 6.37688e-07 
393 1 0.250047 0.214273 0.125413 55.845 -2.41289e-07 
402 1 0.214275 0.142874 0.167429 55.845 9.37842e-07 
403 1 0.24999 0.142886 0.125446 55.845 -7.66757e-07 
404 1 0.249936 0.178573 0.167455 55.845 1.09636e-06 
479 1 0.142857 0.178571 0.0416667 55.845 1.01225e-06 
480 1 0.142821 0.214359 0.0834671 55.845 5.38561e-08 
481 1 0.178571 0.214286 0.0416667 55.845 1.31832e-07 
490 1 0.142799 0.142888 0.0833851 55.845 -7.24114e-07 
491 1 0.178571 0.142857 0.0416667 55.845 6.43996e-07 
492 1 0.17861 0.178528 0.0834246 55.845 -4.38051e-07 
493 1 0.214286 0.178571 0.0416667 55.845 1.54536e-07 
494 1 0.214306 0.21427 0.0833837 55.845 1.09447e-07 
495 1 0.25 0.214286 0.0416667 55.845 4.99281e-08 
504 1 0.214275 0.142871 0.083469 55.845 -7.66886e-08 
505 1 0.25 0.142857 0.0416667 55.845 2.28011e-07 
506 1 0.250031 0.178566 0.0835717 55.845 -2.11912e-07 
571 1 0.142857 0.214286 0 55.845 1.25908e-07 
576 1 0.142857 0.142857 0 55.845 3.29246e-07 
577 1 0.178571 0.178571 0 55.845 -8.41409e-08 
578 1 0.214286 0.214286 0 55.845 -5.63241e-07 
583 1 0.214286 0.142857 0 55.845 -6.56033e-07 
584 1 0.25 0.178571 0 55.845 -8.56684e-07 
303 1 0.285669 0.178594 0.208576 55.845 -2.70897e-07 
305 1 0.321432 0.214265 0.20852 55.845 -2.35559e-07 
315 1 0.321415 0.142898 0.208672 55.845 -7.80093e-07 
317 1 0.35709 0.178605 0.208579 55.845 -1.25795e-07 
405 1 0.285674 0.178566 0.125525 55.845 -3.30135e-07 
406 1 0.285728 0.214302 0.167362 55.845 4.98363e-07 
407 1 0.321393 0.214297 0.125429 55.845 -3.73287e-07 
416 1 0.285732 0.142882 0.167442 55.845 1.27135e-06 
417 1 0.321452 0.142804 0.125386 55.845 -5.224e-08 
418 1 0.321431 0.178539 0.167378 55.845 9.36958e-07 
419 1 0.357112 0.178618 0.125495 55.845 -4.84315e-07 
420 1 0.357092 0.214338 0.167289 55.845 6.90801e-07 
432 1 0.357187 0.142849 0.167306 55.845 7.92421e-07 
507 1 0.285714 0.178571 0.0416667 55.845 4.23561e-07 
508 1 0.285704 0.21434 0.0834322 55.845 -4.16728e-07 
509 1 0.321429 0.214286 0.0416667 55.845 6.47798e-07 
518 1 0.285724 0.142794 0.0835242 55.845 4.05255e-08 
519 1 0.321429 0.142857 0.0416667 55.845 6.04879e-07 
520 1 0.321421 0.178587 0.0834417 55.845 -1.75323e-07 
521 1 0.357143 0.178571 0.0416667 55.845 1.88336e-07 
522 1 0.357115 0.214205 0.0835164 55.845 -3.81996e-07 
534 1 0.357172 0.142925 0.0835434 55.845 -8.68546e-08 
585 1 0.285714 0.214286 0 55.845 -1.22922e-07 
590 1 0.285714 0.142857 0 55.845 1.38192e-08 
591 1 0.321429 0.178571 0 55.845 1.27389e-07 
592 1 0.357143 0.214286 0 55.845 4.46101e-07 
598 1 0.357143 0.142857 0 55.845 -1.27773e-07 
319 1 0.392818 0.214235 0.208693 55.845 -7.21958e-07 
321 1 0.428574 0.249941 0.20863 55.845 -7.92499e-07 
331 1 0.392857 0.14276 0.208546 55.845 -1.13309e-06 
333 1 0.428527 0.178517 0.208644 55.845 -4.43141e-07 
335 1 0.464218 0.21424 0.208577 55.845 -7.22514e-07 
345 1 0.464323 0.142797 0.208666 55.845 -1.08546e-06 
606 1 0.464286 0.178571 0 55.845 -8.47701e-08 
421 1 0.392886 0.214262 0.125464 55.845 -7.64055e-07 
422 1 0.392811 0.249945 0.167449 55.845 5.8221e-07 
423 1 0.428603 0.249987 0.125489 55.845 -2.30054e-07 
433 1 0.3929 0.142797 0.125363 55.845 -8.95043e-07 
434 1 0.392843 0.178495 0.167383 55.845 1.46325e-06 
435 1 0.428497 0.178583 0.125377 55.845 -3.50095e-07 
436 1 0.428568 0.214226 0.167283 55.845 1.26863e-06 
437 1 0.464309 0.214271 0.125502 55.845 -5.259e-07 
605 1 0.428571 0.142857 0 55.845 7.41504e-08 
446 1 0.428569 0.142804 0.167329 55.845 9.33896e-07 
447 1 0.4643 0.142903 0.125354 55.845 -1.046e-07 
448 1 0.46427 0.178523 0.167338 55.845 8.58928e-07 
523 1 0.392857 0.214286 0.0416667 55.845 4.69132e-08 
524 1 0.392885 0.250003 0.0834529 55.845 4.13401e-07 
525 1 0.428571 0.25 0.0416667 55.845 2.89441e-07 
535 1 0.392857 0.142857 0.0416667 55.845 3.32598e-07 
536 1 0.392827 0.178606 0.0834361 55.845 2.00392e-07 
537 1 0.428571 0.178571 0.0416667 55.845 3.93288e-07 
538 1 0.428625 0.214279 0.0834458 55.845 6.80745e-07 
539 1 0.464286 0.214286 0.0416667 55.845 1.35231e-07 
548 1 0.428522 0.142888 0.0833852 55.845 -4.02448e-07 
549 1 0.464286 0.142857 0.0416667 55.845 4.68128e-07 
550 1 0.46424 0.178565 0.0834797 55.845 -3.39636e-07 
593 1 0.392857 0.25 0 55.845 -3.13599e-07 
599 1 0.392857 0.178571 0 55.845 -4.82471e-07 
600 1 0.428571 0.214286 0 55.845 -8.08156e-07 
3 1 -1.4535e-05 0.107095 0.459304 55.845 -6.07031e-07 
7 1 -1.25804e-05 0.0356762 0.459223 55.845 6.70544e-07 
8 1 0.0356997 0.0714493 0.459282 55.845 -6.82887e-08 
9 1 0.0714276 0.107055 0.459258 55.845 -2.96263e-07 
13 1 0.035659 -1.55994e-05 0.459184 55.845 5.96647e-07 
14 1 0.0714192 0.0356976 0.459156 55.845 3.33884e-07 
15 1 0.107171 0.0714174 0.459247 55.845 4.48239e-07 
20 1 0.107131 1.40851e-05 0.45919 55.845 -4.36373e-07 
55 1 -6.01451e-05 0.107112 0.375565 55.845 4.76864e-07 
63 1 1.75671e-05 0.0357234 0.375642 55.845 5.97312e-07 
64 1 -3.28e-05 0.0714604 0.41699 55.845 -2.71294e-07 
65 1 0.0356824 0.0714218 0.375672 55.845 -3.28837e-09 
66 1 0.035709 0.107119 0.417222 55.845 -6.0602e-07 
67 1 0.0714182 0.107103 0.375689 55.845 -4.87873e-07 
74 1 1.3628e-05 -3.21487e-05 0.416908 55.845 -1.11293e-07 
75 1 0.0357617 4.70329e-05 0.375442 55.845 2.22802e-07 
76 1 0.0356556 0.0357056 0.417088 55.845 7.90857e-08 
77 1 0.071408 0.0357147 0.375609 55.845 -1.85882e-07 
78 1 0.0714258 0.0713581 0.417101 55.845 9.77402e-08 
79 1 0.107167 0.0713863 0.375717 55.845 4.83023e-07 
80 1 0.107099 0.10711 0.416979 55.845 -1.83468e-07 
88 1 0.0713604 -4.08566e-05 0.417078 55.845 -7.9967e-07 
89 1 0.107142 7.75138e-05 0.375674 55.845 4.13599e-07 
90 1 0.107109 0.0356843 0.417039 55.845 -5.53796e-07 
157 1 -9.54301e-06 0.107162 0.292573 55.845 4.83816e-07 
165 1 -8.18446e-05 0.0356687 0.292534 55.845 2.08641e-07 
166 1 -1.69205e-05 0.0714178 0.334418 55.845 2.17412e-08 
167 1 0.0357538 0.0714218 0.292503 55.845 -4.85066e-07 
168 1 0.0357032 0.107142 0.33454 55.845 -1.01828e-07 
169 1 0.0714764 0.107149 0.292534 55.845 -1.69802e-07 
176 1 3.77109e-05 3.25358e-05 0.33435 55.845 -1.05535e-06 
177 1 0.035719 -1.17527e-05 0.292441 55.845 7.86064e-07 
178 1 0.035769 0.0357078 0.334461 55.845 1.34118e-07 
179 1 0.0714654 0.0357625 0.292493 55.845 6.7122e-07 
180 1 0.0714199 0.0714536 0.334535 55.845 7.99725e-07 
181 1 0.107195 0.071468 0.29243 55.845 -7.75403e-08 
182 1 0.107142 0.107063 0.334533 55.845 -6.88854e-07 
190 1 0.0714312 -1.477e-05 0.334466 55.845 -5.20214e-07 
191 1 0.107212 2.04035e-06 0.292527 55.845 9.40653e-07 
192 1 0.107155 0.0357834 0.334555 55.845 1.19297e-06 
268 1 -8.21945e-06 0.071446 0.250386 55.845 3.71778e-08 
270 1 0.0358039 0.107137 0.250477 55.845 4.88654e-08 
278 1 2.30361e-05 4.31276e-05 0.250364 55.845 -1.97526e-07 
280 1 0.0357271 0.0357926 0.250406 55.845 -7.2114e-07 
282 1 0.0714446 0.0714744 0.250337 55.845 -1.52365e-07 
284 1 0.107103 0.107234 0.250364 55.845 1.70006e-07 
292 1 0.0715052 1.57176e-05 0.250339 55.845 6.06226e-07 
294 1 0.107213 0.0357241 0.250401 55.845 -7.29026e-07 
16 1 0.142814 0.107157 0.45921 55.845 2.83146e-07 
21 1 0.142819 0.0357445 0.459293 55.845 1.37475e-07 
22 1 0.178557 0.0713371 0.459281 55.845 4.62024e-07 
23 1 0.214292 0.107158 0.459187 55.845 -2.09407e-07 
27 1 0.178605 -1.70479e-06 0.459253 55.845 4.28252e-08 
28 1 0.214264 0.0356662 0.45933 55.845 5.2453e-08 
29 1 0.25003 0.0713587 0.459266 55.845 -4.19404e-07 
81 1 0.142893 0.107117 0.375746 55.845 -2.92498e-07 
91 1 0.142966 0.0357392 0.375687 55.845 5.55686e-07 
92 1 0.142839 0.0714628 0.417115 55.845 -4.28807e-07 
93 1 0.178584 0.0714605 0.37562 55.845 -2.98425e-07 
94 1 0.178552 0.107138 0.417254 55.845 -1.10318e-06 
95 1 0.214283 0.107107 0.375827 55.845 8.88778e-08 
102 1 0.142818 8.00536e-05 0.417125 55.845 -1.40408e-06 
103 1 0.178541 1.14424e-05 0.375713 55.845 2.35911e-07 
104 1 0.178608 0.0357146 0.417141 55.845 -2.63816e-07 
105 1 0.214274 0.0356699 0.375746 55.845 -2.46016e-07 
106 1 0.21429 0.0713794 0.417131 55.845 7.2376e-08 
107 1 0.249998 0.0714214 0.375683 55.845 -3.76543e-07 
108 1 0.249975 0.107106 0.417164 55.845 3.34423e-07 
118 1 0.214307 6.89043e-06 0.417106 55.845 -1.84464e-07 
120 1 0.250016 0.0357431 0.417045 55.845 1.03011e-07 
183 1 0.142817 0.107109 0.292578 55.845 3.23617e-07 
193 1 0.142894 0.0357278 0.292669 55.845 -2.31582e-08 
194 1 0.142895 0.0714514 0.334533 55.845 -4.43945e-08 
195 1 0.178516 0.0714189 0.292466 55.845 -5.03733e-07 
196 1 0.178578 0.107152 0.334541 55.845 -4.41259e-07 
197 1 0.214247 0.10707 0.292443 55.845 -6.56831e-08 
204 1 0.142881 -0.000103838 0.334591 55.845 -5.64018e-07 
205 1 0.178567 2.08331e-05 0.2925 55.845 -5.58067e-08 
206 1 0.178564 0.0357062 0.334526 55.845 5.54197e-08 
207 1 0.214335 0.0357212 0.292451 55.845 -8.87445e-08 
208 1 0.214257 0.0713674 0.33445 55.845 -7.23331e-08 
209 1 0.250045 0.071385 0.29253 55.845 -3.29561e-07 
210 1 0.249954 0.107165 0.334558 55.845 2.86569e-08 
220 1 0.214229 1.06993e-05 0.334568 55.845 3.99654e-08 
222 1 0.250031 0.035669 0.334559 55.845 4.28115e-07 
296 1 0.142812 0.0714587 0.250366 55.845 -8.10069e-08 
298 1 0.17851 0.107134 0.25031 55.845 1.79304e-07 
306 1 0.142828 -3.20495e-05 0.250482 55.845 3.39367e-07 
308 1 0.178545 0.0356829 0.250417 55.845 -2.79296e-07 
310 1 0.214258 0.0713482 0.250363 55.845 3.9692e-07 
312 1 0.249979 0.107115 0.250406 55.845 3.32133e-07 
322 1 0.21429 2.91947e-05 0.250433 55.845 5.52635e-07 
324 1 0.25001 0.0357079 0.250367 55.845 2.51198e-07 
30 1 0.28568 0.107076 0.459133 55.845 -2.64266e-07 
35 1 0.250011 -3.58754e-05 0.459157 55.845 -6.01724e-07 
36 1 0.285737 0.0356497 0.459273 55.845 -3.30803e-07 
37 1 0.321472 0.0714307 0.459269 55.845 -3.12492e-07 
38 1 0.357266 0.107139 0.459159 55.845 1.05798e-07 
42 1 0.321405 -2.38539e-05 0.459221 55.845 1.83779e-07 
43 1 0.357197 0.0356606 0.459191 55.845 4.43142e-08 
109 1 0.285765 0.107151 0.375667 55.845 -2.59311e-07 
119 1 0.25007 -5.91079e-05 0.375721 55.845 1.21543e-08 
121 1 0.285692 0.0356385 0.375707 55.845 -6.87621e-07 
122 1 0.285737 0.0714413 0.417125 55.845 -1.48816e-07 
123 1 0.321432 0.0713732 0.375734 55.845 -8.00921e-07 
124 1 0.321554 0.107182 0.417035 55.845 -1.53542e-07 
125 1 0.357133 0.107075 0.375629 55.845 -7.64143e-08 
133 1 0.32146 -5.09472e-05 0.375666 55.845 1.63103e-07 
134 1 0.321405 0.0356963 0.417185 55.845 -7.088e-08 
135 1 0.357135 0.0356792 0.375614 55.845 -4.48384e-07 
136 1 0.357159 0.0714051 0.417039 55.845 1.61879e-07 
211 1 0.285689 0.10706 0.292631 55.845 9.16488e-08 
221 1 0.250006 -2.40286e-05 0.292517 55.845 1.06911e-07 
223 1 0.28577 0.0356416 0.292461 55.845 -4.93064e-07 
224 1 0.285682 0.0713456 0.334493 55.845 8.20583e-08 
225 1 0.32152 0.0713988 0.292504 55.845 -2.71554e-07 
226 1 0.32146 0.107013 0.334552 55.845 -5.22682e-08 
227 1 0.357237 0.106991 0.292522 55.845 4.60038e-08 
235 1 0.321525 -5.52304e-05 0.292551 55.845 -8.64268e-07 
236 1 0.321406 0.0357253 0.334593 55.845 1.28601e-07 
237 1 0.357163 0.0356758 0.292524 55.845 -5.0067e-07 
238 1 0.357225 0.0713885 0.334432 55.845 5.53151e-07 
326 1 0.285782 0.0714067 0.250359 55.845 9.52825e-07 
328 1 0.321508 0.107089 0.250433 55.845 6.01894e-07 
338 1 0.321498 0.0356842 0.250406 55.845 3.11914e-07 
340 1 0.357195 0.0713899 0.250374 55.845 2.61678e-07 
44 1 0.392826 0.0714057 0.459089 55.845 -4.85969e-07 
45 1 0.428623 0.107127 0.459194 55.845 -7.30235e-07 
47 1 0.392857 -7.76617e-05 0.459162 55.845 4.01838e-07 
48 1 0.428607 0.0356596 0.459242 55.845 -6.25359e-07 
49 1 0.464399 0.0714073 0.459212 55.845 -2.30837e-07 
50 1 0.464299 -4.62044e-05 0.459241 55.845 5.6129e-08 
137 1 0.392897 0.0713785 0.375547 55.845 -9.33502e-07 
138 1 0.392893 0.107167 0.417037 55.845 6.70975e-07 
139 1 0.428627 0.10716 0.375515 55.845 -1.53291e-07 
144 1 0.392901 1.64942e-05 0.375587 55.845 2.30277e-07 
145 1 0.392933 0.0357234 0.416982 55.845 -1.44906e-07 
146 1 0.428658 0.0357158 0.375664 55.845 -1.03021e-06 
147 1 0.428637 0.0713935 0.417125 55.845 -3.46874e-07 
148 1 0.464376 0.0714021 0.375639 55.845 -5.24518e-07 
149 1 0.464247 0.107123 0.416998 55.845 7.87277e-07 
150 1 0.428614 -5.89883e-05 0.41705 55.845 -2.45942e-07 
151 1 0.464258 -6.77939e-05 0.375795 55.845 -8.89609e-07 
152 1 0.46426 0.035692 0.417069 55.845 -5.93752e-08 
239 1 0.393001 0.0714088 0.292457 55.845 -3.54481e-07 
240 1 0.392904 0.107137 0.334546 55.845 1.00368e-06 
241 1 0.428648 0.10716 0.292413 55.845 -2.4651e-07 
246 1 0.3929 -4.0968e-05 0.292507 55.845 -4.3531e-07 
247 1 0.392873 0.0356827 0.334355 55.845 3.00821e-07 
248 1 0.428659 0.0357013 0.292443 55.845 -8.43962e-08 
249 1 0.428591 0.071437 0.33446 55.845 1.06642e-06 
250 1 0.464321 0.0714376 0.292523 55.845 -7.76605e-07 
251 1 0.464336 0.107071 0.334342 55.845 5.88139e-07 
252 1 0.428594 -4.91848e-05 0.334531 55.845 4.587e-07 
253 1 0.46427 -8.55393e-05 0.292567 55.845 -2.90819e-07 
254 1 0.46428 0.0356766 0.334387 55.845 8.21157e-07 
342 1 0.392903 0.107107 0.250372 55.845 -4.98218e-07 
349 1 0.392923 0.0356273 0.250255 55.845 3.43868e-07 
351 1 0.428637 0.0714431 0.250421 55.845 4.34133e-07 
353 1 0.464353 0.107105 0.250317 55.845 4.72986e-07 
354 1 0.428635 -1.95427e-05 0.250239 55.845 1.25383e-06 
356 1 0.464376 0.035685 0.250316 55.845 8.47224e-07 
1 1 -7.0151e-05 0.17861 0.459148 55.845 -3.61156e-07 
2 1 0.0357562 0.214272 0.459375 55.845 5.78494e-07 
4 1 0.0356906 0.1428 0.459204 55.845 -4.17655e-07 
5 1 0.0714423 0.178531 0.459328 55.845 3.98093e-07 
6 1 0.107219 0.214304 0.459179 55.845 3.93298e-07 
10 1 0.107132 0.142878 0.459232 55.845 3.6425e-07 
51 1 3.66595e-05 0.178588 0.375615 55.845 1.65597e-07 
52 1 4.02045e-05 0.214309 0.417077 55.845 -8.94471e-07 
53 1 0.0357303 0.214293 0.375636 55.845 5.71125e-07 
54 1 0.0356991 0.249975 0.417072 55.845 -8.77252e-07 
56 1 -4.50501e-05 0.142864 0.417121 55.845 -6.91525e-07 
57 1 0.0357331 0.142806 0.375742 55.845 -2.97004e-07 
58 1 0.0357339 0.178578 0.417174 55.845 -4.56607e-07 
59 1 0.07139 0.178534 0.375604 55.845 2.58535e-07 
60 1 0.0715224 0.214217 0.417064 55.845 -1.68267e-07 
61 1 0.1072 0.214218 0.375625 55.845 1.64898e-07 
62 1 0.107172 0.249999 0.417076 55.845 -1.18397e-06 
68 1 0.0714376 0.142859 0.417048 55.845 -4.6378e-07 
69 1 0.10709 0.142867 0.375598 55.845 1.52528e-07 
70 1 0.10718 0.178497 0.416928 55.845 -1.50628e-07 
153 1 -1.89036e-05 0.178595 0.292461 55.845 1.80324e-07 
154 1 3.14356e-05 0.214177 0.334398 55.845 -1.26474e-07 
155 1 0.0356936 0.214289 0.292478 55.845 1.19748e-07 
156 1 0.0356417 0.249889 0.334439 55.845 -5.09347e-07 
158 1 -2.51661e-06 0.142859 0.334537 55.845 -4.69556e-07 
159 1 0.0357791 0.142852 0.29246 55.845 5.65794e-07 
160 1 0.0357441 0.178498 0.334537 55.845 5.74143e-07 
161 1 0.071398 0.178592 0.29248 55.845 -6.66834e-08 
162 1 0.0714676 0.214255 0.334332 55.845 1.60233e-08 
163 1 0.107104 0.214249 0.292316 55.845 2.98058e-07 
164 1 0.1071 0.249941 0.334415 55.845 -8.53799e-07 
170 1 0.0714469 0.142893 0.334529 55.845 -6.25073e-07 
171 1 0.107155 0.14288 0.292478 55.845 -1.06726e-07 
172 1 0.107244 0.178581 0.33436 55.845 -1.54287e-07 
256 1 -1.84075e-05 0.214249 0.250328 55.845 -6.63346e-07 
258 1 0.035701 0.249967 0.250386 55.845 -7.39152e-07 
260 1 -2.75845e-05 0.142834 0.250543 55.845 4.22645e-07 
262 1 0.0356849 0.178541 0.250324 55.845 -7.31712e-07 
264 1 0.0713673 0.214229 0.250339 55.845 -6.132e-07 
266 1 0.107129 0.250007 0.250275 55.845 9.75197e-07 
272 1 0.0714603 0.142904 0.250453 55.845 4.46369e-07 
274 1 0.107188 0.178508 0.250328 55.845 -4.3419e-07 
11 1 0.142874 0.17853 0.459186 55.845 -6.47528e-08 
12 1 0.178578 0.214287 0.459328 55.845 2.26354e-07 
17 1 0.178645 0.142919 0.459138 55.845 -1.49974e-08 
18 1 0.214348 0.17863 0.459198 55.845 -1.44229e-07 
19 1 0.25001 0.214186 0.459153 55.845 -3.05958e-07 
24 1 0.249987 0.142889 0.459237 55.845 -6.03475e-07 
71 1 0.142877 0.17857 0.375625 55.845 2.1177e-07 
72 1 0.14291 0.214241 0.41699 55.845 2.07456e-07 
73 1 0.178614 0.214295 0.375582 55.845 -4.67387e-07 
82 1 0.142819 0.14284 0.417124 55.845 -7.07904e-07 
83 1 0.178491 0.142818 0.375736 55.845 1.66835e-08 
84 1 0.17859 0.17866 0.417018 55.845 9.84696e-08 
85 1 0.214257 0.17856 0.375666 55.845 1.41441e-07 
86 1 0.214361 0.214338 0.417057 55.845 7.72748e-07 
87 1 0.250026 0.214322 0.375593 55.845 -3.784e-07 
96 1 0.214368 0.142853 0.417108 55.845 -3.31046e-07 
97 1 0.250053 0.142868 0.37564 55.845 3.87491e-07 
98 1 0.250078 0.178585 0.417007 55.845 3.82865e-07 
173 1 0.142952 0.178518 0.292447 55.845 2.9411e-07 
174 1 0.142852 0.214329 0.334377 55.845 -1.87388e-07 
175 1 0.17857 0.214318 0.292429 55.845 1.06268e-07 
184 1 0.142878 0.142838 0.334468 55.845 -9.29464e-07 
185 1 0.178674 0.142855 0.292611 55.845 3.95622e-07 
186 1 0.178585 0.178651 0.334499 55.845 5.74234e-07 
187 1 0.214395 0.178567 0.292521 55.845 1.71975e-07 
188 1 0.214244 0.214301 0.334383 55.845 2.17745e-07 
189 1 0.250057 0.214295 0.292579 55.845 -3.88591e-07 
198 1 0.214307 0.142847 0.334492 55.845 1.81261e-07 
199 1 0.250087 0.142813 0.292511 55.845 4.86721e-07 
200 1 0.24999 0.178608 0.334457 55.845 2.85102e-07 
276 1 0.142866 0.214256 0.250352 55.845 2.74229e-07 
286 1 0.14289 0.142744 0.250422 55.845 3.4325e-07 
288 1 0.17858 0.178501 0.250342 55.845 -2.32481e-07 
290 1 0.214382 0.214307 0.250446 55.845 -2.81657e-07 
300 1 0.214233 0.142834 0.250424 55.845 5.33231e-07 
302 1 0.249993 0.178535 0.250455 55.845 -2.21479e-07 
25 1 0.285762 0.178523 0.459242 55.845 1.31626e-07 
26 1 0.321456 0.214382 0.459198 55.845 2.39843e-08 
31 1 0.32143 0.142826 0.459298 55.845 1.88772e-07 
32 1 0.357173 0.178544 0.459236 55.845 4.91083e-07 
99 1 0.285754 0.178577 0.375542 55.845 -7.18767e-07 
100 1 0.285847 0.214217 0.417065 55.845 2.21936e-07 
101 1 0.321507 0.214228 0.375723 55.845 -4.392e-07 
110 1 0.285752 0.142911 0.417059 55.845 2.37481e-07 
111 1 0.321439 0.142831 0.375554 55.845 2.31402e-07 
112 1 0.321486 0.17856 0.417129 55.845 -7.52996e-07 
113 1 0.357132 0.178564 0.375512 55.845 -5.33501e-07 
114 1 0.357232 0.214219 0.417022 55.845 -1.31476e-07 
126 1 0.357114 0.142871 0.417246 55.845 1.82863e-07 
201 1 0.285775 0.17857 0.292536 55.845 6.78099e-08 
202 1 0.285758 0.214248 0.334569 55.845 4.87123e-07 
203 1 0.321399 0.214298 0.292516 55.845 5.03701e-07 
212 1 0.285797 0.142853 0.334417 55.845 -7.36004e-07 
213 1 0.321489 0.142786 0.292504 55.845 -7.30538e-07 
214 1 0.321447 0.178465 0.334467 55.845 -1.34542e-07 
215 1 0.357143 0.178511 0.292494 55.845 5.70506e-09 