ITEM: TIMESTEP
300
ITEM: NUMBER OF ATOMS
5880
ITEM: BOX BOUNDS pp pp ff
-27.9292 27.9292
-27.9292 27.9292
0 34.092
ITEM: ATOMS id type xs ys zs mass q 
259 1 3.29508e-05 0.10707 0.209445 55.845 -2.79068e-07 
267 1 1.41186e-05 0.0357763 0.209402 55.845 8.60737e-08 
269 1 0.0357239 0.0714325 0.209434 55.845 -2.20317e-07 
271 1 0.0713848 0.10715 0.209309 55.845 -2.61241e-08 
279 1 0.0357643 1.22627e-05 0.209392 55.845 -2.41374e-08 
281 1 0.0714165 0.0357213 0.209442 55.845 -2.588e-07 
283 1 0.107145 0.0713704 0.209466 55.845 -2.1202e-07 
293 1 0.107095 -2.33668e-05 0.209494 55.845 1.42895e-08 
361 1 3.40503e-05 0.107171 0.126052 55.845 2.51882e-07 
369 1 -5.35791e-05 0.0357005 0.126088 55.845 -1.70941e-07 
370 1 3.18336e-05 0.0713894 0.16768 55.845 4.16948e-07 
371 1 0.0357274 0.0714178 0.126073 55.845 -1.04001e-07 
372 1 0.0357157 0.107184 0.167626 55.845 4.21029e-07 
373 1 0.0714719 0.107161 0.126174 55.845 1.53843e-08 
380 1 1.23159e-05 5.61685e-05 0.167748 55.845 3.1713e-07 
381 1 0.0356071 2.68285e-05 0.126119 55.845 2.00667e-07 
382 1 0.0357369 0.0357222 0.167722 55.845 2.0083e-07 
383 1 0.071454 0.0357546 0.126026 55.845 -1.33504e-07 
384 1 0.0714171 0.0713622 0.167694 55.845 5.39031e-08 
385 1 0.107157 0.0714346 0.12622 55.845 9.55576e-08 
386 1 0.107127 0.107115 0.167759 55.845 3.32165e-07 
394 1 0.0713759 -7.27317e-06 0.167515 55.845 3.87648e-07 
395 1 0.107114 5.4652e-05 0.126043 55.845 1.29456e-07 
396 1 0.107096 0.0356369 0.167692 55.845 8.10692e-08 
463 1 0 0.107143 0.0416667 55.845 -2.0248e-08 
471 1 0 0.0357143 0.0416667 55.845 -2.44999e-07 
472 1 1.00398e-05 0.0714586 0.084125 55.845 -3.85539e-07 
473 1 0.0357143 0.0714286 0.0416667 55.845 -5.44797e-08 
474 1 0.0357572 0.107094 0.0840592 55.845 -3.0464e-07 
475 1 0.0714286 0.107143 0.0416667 55.845 -3.19474e-07 
482 1 3.2104e-05 -6.05254e-05 0.0840609 55.845 -4.68975e-07 
483 1 0.0357143 0 0.0416667 55.845 -2.46952e-07 
484 1 0.0357454 0.0356416 0.0840262 55.845 -5.29302e-07 
485 1 0.0714286 0.0357143 0.0416667 55.845 -5.6337e-08 
486 1 0.0713847 0.0714985 0.0841257 55.845 -3.59777e-07 
487 1 0.107143 0.0714286 0.0416667 55.845 -1.18585e-07 
488 1 0.107141 0.107161 0.0841576 55.845 -1.88341e-07 
496 1 0.0713509 -3.66447e-05 0.0841317 55.845 2.38878e-08 
497 1 0.107143 0 0.0416667 55.845 4.42122e-08 
498 1 0.10718 0.0357281 0.0841107 55.845 -1.4577e-07 
567 1 0 0.0714286 0 55.845 5.39312e-07 
568 1 0.0357143 0.107143 0 55.845 3.31167e-08 
572 1 0 0 0 55.845 -1.35674e-07 
573 1 0.0357143 0.0357143 0 55.845 1.94814e-07 
574 1 0.0714286 0.0714286 0 55.845 5.2725e-08 
575 1 0.107143 0.107143 0 55.845 -3.82868e-07 
579 1 0.0714286 0 0 55.845 -2.49584e-07 
580 1 0.107143 0.0357143 0 55.845 8.25796e-08 
285 1 0.142864 0.107143 0.209406 55.845 -7.78546e-08 
295 1 0.142884 0.0356944 0.209296 55.845 -2.35537e-07 
297 1 0.17859 0.0714438 0.209322 55.845 -4.90979e-08 
299 1 0.214272 0.107171 0.209355 55.845 -8.08281e-08 
307 1 0.178586 5.52078e-06 0.209346 55.845 -1.30556e-07 
309 1 0.214228 0.0357979 0.209301 55.845 -1.93458e-07 
311 1 0.250008 0.0714145 0.209519 55.845 -1.23504e-09 
387 1 0.142907 0.107174 0.126131 55.845 4.35215e-08 
397 1 0.14285 0.0357343 0.126041 55.845 3.00622e-08 
398 1 0.142807 0.0714243 0.167768 55.845 2.45495e-07 
399 1 0.178536 0.071481 0.125952 55.845 -1.45814e-07 
400 1 0.178577 0.10715 0.1677 55.845 1.13603e-07 
401 1 0.21435 0.107146 0.125966 55.845 -5.29967e-08 
408 1 0.142815 4.64372e-05 0.167712 55.845 2.92405e-07 
409 1 0.17861 5.96766e-05 0.126036 55.845 4.58489e-08 
410 1 0.178594 0.0358051 0.167595 55.845 1.53222e-07 
411 1 0.214256 0.0357202 0.126099 55.845 -1.82103e-07 
412 1 0.214322 0.0714951 0.167677 55.845 4.08808e-07 
413 1 0.25006 0.0714451 0.126091 55.845 1.3266e-07 
414 1 0.250016 0.107093 0.167598 55.845 2.90493e-07 
424 1 0.214283 3.60041e-05 0.167723 55.845 1.78899e-07 
426 1 0.250002 0.0357109 0.167738 55.845 3.66266e-07 
489 1 0.142857 0.107143 0.0416667 55.845 -3.42515e-07 
499 1 0.142857 0.0357143 0.0416667 55.845 -7.72508e-08 
500 1 0.142803 0.071475 0.0841391 55.845 -2.4597e-07 
501 1 0.178571 0.0714286 0.0416667 55.845 -3.06131e-07 
502 1 0.178673 0.107103 0.0841324 55.845 -4.36407e-07 
503 1 0.214286 0.107143 0.0416667 55.845 1.15128e-07 
510 1 0.142808 -1.75886e-05 0.0841746 55.845 -1.13657e-07 
511 1 0.178571 0 0.0416667 55.845 -9.47216e-08 
512 1 0.178516 0.0356504 0.0840886 55.845 -5.55295e-07 
513 1 0.214286 0.0357143 0.0416667 55.845 -3.75749e-07 
514 1 0.214318 0.0714249 0.0841024 55.845 -4.97427e-07 
515 1 0.25 0.0714286 0.0416667 55.845 -6.13931e-08 
516 1 0.250054 0.10716 0.083991 55.845 -2.05482e-07 
526 1 0.214342 -2.84565e-05 0.0840582 55.845 -2.92477e-07 
528 1 0.25 0.0357001 0.0840717 55.845 -5.30432e-07 
581 1 0.142857 0.0714286 0 55.845 -1.6201e-07 
582 1 0.178571 0.107143 0 55.845 -3.94197e-08 
586 1 0.142857 0 0 55.845 2.05809e-07 
587 1 0.178571 0.0357143 0 55.845 -3.91235e-08 
588 1 0.214286 0.0714286 0 55.845 3.89154e-07 
589 1 0.25 0.107143 0 55.845 4.43022e-07 
594 1 0.214286 0 0 55.845 1.7457e-07 
595 1 0.25 0.0357143 0 55.845 2.15413e-07 
313 1 0.285731 0.107111 0.20938 55.845 -4.44353e-07 
323 1 0.249938 -6.73065e-06 0.209477 55.845 -4.0943e-07 
325 1 0.285723 0.0356505 0.209419 55.845 -1.75593e-07 
327 1 0.321455 0.0714055 0.209339 55.845 -2.99402e-07 
329 1 0.357165 0.107059 0.209292 55.845 -3.86899e-07 
337 1 0.321452 1.89527e-05 0.209343 55.845 -2.93265e-07 
339 1 0.357182 0.0357795 0.209382 55.845 -2.13736e-07 
415 1 0.285655 0.107134 0.126095 55.845 6.46572e-08 
425 1 0.249997 1.73699e-05 0.126171 55.845 3.76384e-08 
427 1 0.285693 0.0356724 0.126061 55.845 1.10255e-07 
428 1 0.285701 0.0713632 0.167802 55.845 4.56114e-07 
429 1 0.321362 0.071413 0.12611 55.845 2.82742e-07 
430 1 0.321411 0.10711 0.16761 55.845 1.65275e-07 
431 1 0.357189 0.107182 0.126056 55.845 1.25018e-07 
439 1 0.321439 6.22864e-05 0.126066 55.845 -1.21733e-07 
440 1 0.321418 0.0357007 0.167736 55.845 2.75251e-07 
441 1 0.357112 0.0357475 0.126097 55.845 -1.86671e-07 
442 1 0.357147 0.0714585 0.167584 55.845 4.85127e-07 
517 1 0.285714 0.107143 0.0416667 55.845 -1.56859e-07 
527 1 0.25 0 0.0416667 55.845 8.48904e-08 
529 1 0.285714 0.0357143 0.0416667 55.845 -2.43591e-07 
530 1 0.285766 0.0713757 0.0840837 55.845 -2.68525e-07 
531 1 0.321429 0.0714286 0.0416667 55.845 -2.68442e-07 
532 1 0.321419 0.107119 0.0840949 55.845 -1.06685e-07 
533 1 0.357143 0.107143 0.0416667 55.845 -7.5198e-08 
603 1 0.357143 0.0714286 0 55.845 -1.93294e-07 
541 1 0.321429 0 0.0416667 55.845 -1.64026e-07 
542 1 0.321432 0.0357348 0.0840291 55.845 -4.55714e-07 
543 1 0.357143 0.0357143 0.0416667 55.845 -3.88798e-07 
544 1 0.357137 0.0713887 0.0841171 55.845 -2.72275e-07 
602 1 0.321429 0.0357143 0 55.845 8.0393e-09 
596 1 0.285714 0.0714286 0 55.845 5.56665e-08 
597 1 0.321429 0.107143 0 55.845 -1.71092e-10 
612 1 0.464286 0.0357143 0 55.845 8.76396e-08 
611 1 0.428571 0 0 55.845 -3.57633e-08 
610 1 0.464286 0.107143 0 55.845 1.10768e-07 
609 1 0.428571 0.0714286 0 55.845 -4.70718e-08 
608 1 0.392857 0.0357143 0 55.845 9.16053e-08 
341 1 0.392889 0.0714299 0.209568 55.845 1.96058e-07 
343 1 0.428618 0.107099 0.209356 55.845 -2.13123e-07 
348 1 0.392886 4.82191e-06 0.209489 55.845 -4.86141e-07 
350 1 0.428559 0.0357191 0.209566 55.845 6.85654e-08 
352 1 0.464274 0.0714471 0.209357 55.845 5.32518e-08 
355 1 0.464307 1.62268e-05 0.209373 55.845 -4.75342e-07 
443 1 0.392839 0.0714389 0.126002 55.845 1.31831e-07 
444 1 0.392911 0.107084 0.167643 55.845 1.12662e-07 
445 1 0.428656 0.107134 0.12612 55.845 2.5532e-08 
604 1 0.392857 0.107143 0 55.845 -3.08412e-07 
450 1 0.392898 2.25622e-05 0.126118 55.845 -4.15547e-07 
451 1 0.392861 0.0357018 0.167776 55.845 3.05284e-07 
452 1 0.428661 0.0357587 0.126131 55.845 7.38606e-08 
453 1 0.428486 0.0714003 0.16771 55.845 5.84241e-07 
454 1 0.464268 0.0713804 0.126129 55.845 1.48111e-07 
455 1 0.46427 0.107093 0.167545 55.845 1.59077e-07 
456 1 0.428601 5.40229e-05 0.167771 55.845 -6.31604e-09 
457 1 0.464167 -2.89575e-05 0.126134 55.845 4.21628e-08 
458 1 0.464316 0.0357245 0.167676 55.845 3.77644e-07 
545 1 0.392857 0.0714286 0.0416667 55.845 -4.05982e-07 
546 1 0.392853 0.107123 0.0840903 55.845 -3.91575e-07 
547 1 0.428571 0.107143 0.0416667 55.845 -2.97817e-07 
552 1 0.392857 0 0.0416667 55.845 -2.26995e-07 
553 1 0.392934 0.0357417 0.0841428 55.845 -5.8696e-07 
554 1 0.428571 0.0357143 0.0416667 55.845 -4.7411e-08 
555 1 0.428542 0.0714401 0.0840511 55.845 -2.31732e-07 
556 1 0.464286 0.0714286 0.0416667 55.845 1.18937e-07 
557 1 0.464329 0.107142 0.0839916 55.845 -3.36565e-07 
558 1 0.428588 2.75703e-05 0.0841687 55.845 -3.98812e-07 
559 1 0.464286 0 0.0416667 55.845 -3.05215e-07 
560 1 0.464267 0.035749 0.0840514 55.845 4.17809e-08 
255 1 4.61401e-06 0.178652 0.209407 55.845 -2.73216e-07 
257 1 0.0357124 0.214195 0.209417 55.845 -8.75273e-08 
261 1 0.035669 0.142816 0.209471 55.845 -6.25062e-08 
263 1 0.0713737 0.17864 0.209411 55.845 -1.15762e-07 
265 1 0.107203 0.21426 0.209307 55.845 -7.57593e-08 
273 1 0.107129 0.142899 0.209439 55.845 -1.87663e-07 
357 1 2.52207e-05 0.178551 0.126056 55.845 1.61557e-07 
358 1 5.0152e-05 0.214328 0.167603 55.845 2.12541e-08 
359 1 0.0357369 0.214254 0.126044 55.845 -6.23916e-08 
360 1 0.0357492 0.249978 0.167667 55.845 1.1873e-07 
362 1 4.58341e-05 0.142875 0.167801 55.845 3.58891e-07 
363 1 0.0357211 0.14277 0.125947 55.845 4.84998e-08 
364 1 0.0357343 0.178541 0.167578 55.845 1.22603e-07 
365 1 0.0714473 0.178522 0.126026 55.845 -1.72964e-07 
366 1 0.0713807 0.214213 0.167699 55.845 2.17981e-07 
367 1 0.107103 0.214324 0.126076 55.845 1.75266e-07 
368 1 0.107138 0.250009 0.167631 55.845 2.70895e-07 
374 1 0.0713894 0.142882 0.167578 55.845 1.87737e-07 
375 1 0.107147 0.142892 0.126133 55.845 -1.07967e-08 
376 1 0.107128 0.17854 0.167677 55.845 6.68992e-08 
459 1 0 0.178571 0.0416667 55.845 9.21154e-08 
460 1 5.93493e-06 0.214266 0.0840289 55.845 -2.45963e-07 
461 1 0.0357143 0.214286 0.0416667 55.845 -1.39181e-07 
462 1 0.0356873 0.250043 0.0840011 55.845 -2.87788e-07 
464 1 1.28694e-05 0.142867 0.0841119 55.845 1.25608e-08 
465 1 0.0357143 0.142857 0.0416667 55.845 -2.53539e-07 
466 1 0.0357049 0.178578 0.0841266 55.845 -3.48975e-07 
467 1 0.0714286 0.178571 0.0416667 55.845 -1.33728e-08 
468 1 0.0713775 0.214311 0.0841 55.845 -1.98762e-07 
469 1 0.107143 0.214286 0.0416667 55.845 7.44706e-08 
470 1 0.107174 0.250051 0.08412 55.845 -3.11514e-07 
476 1 0.071439 0.142871 0.0840381 55.845 -3.19176e-07 
477 1 0.107143 0.142857 0.0416667 55.845 -8.1627e-08 
478 1 0.107141 0.178588 0.0840359 55.845 1.31509e-07 
561 1 0 0.214286 0 55.845 7.67799e-08 
562 1 0.0357143 0.25 0 55.845 -1.63156e-07 
563 1 0 0.142857 0 55.845 6.53041e-08 
564 1 0.0357143 0.178571 0 55.845 -4.99186e-08 
565 1 0.0714286 0.214286 0 55.845 -7.39601e-09 
566 1 0.107143 0.25 0 55.845 -1.18493e-07 
569 1 0.0714286 0.142857 0 55.845 -2.56494e-07 
570 1 0.107143 0.178571 0 55.845 1.74495e-07 
275 1 0.142874 0.178598 0.209338 55.845 -2.87554e-07 
277 1 0.178527 0.214332 0.209344 55.845 1.42525e-07 
287 1 0.178606 0.142811 0.2093 55.845 -3.34454e-07 
289 1 0.214272 0.178597 0.209266 55.845 -1.26536e-07 
291 1 0.249967 0.21433 0.209286 55.845 -2.12635e-07 
301 1 0.249974 0.142892 0.209489 55.845 -2.73521e-07 
377 1 0.142719 0.178553 0.126067 55.845 2.72484e-07 
378 1 0.142877 0.214322 0.167651 55.845 5.20811e-07 
379 1 0.178543 0.214227 0.126083 55.845 3.20855e-07 
388 1 0.142877 0.142875 0.167774 55.845 -3.08057e-08 
389 1 0.178559 0.142851 0.126068 55.845 -1.45515e-07 
390 1 0.178493 0.1785 0.167694 55.845 3.84718e-07 
391 1 0.214199 0.178546 0.126067 55.845 3.7794e-07 
392 1 0.214233 0.214264 0.167738 55.845 4.44155e-07 
393 1 0.249954 0.214291 0.125996 55.845 1.47569e-07 
402 1 0.214262 0.142874 0.167677 55.845 1.66648e-07 
403 1 0.25 0.142833 0.126093 55.845 1.49479e-07 
404 1 0.249957 0.178565 0.167609 55.845 5.25658e-07 
479 1 0.142857 0.178571 0.0416667 55.845 1.3674e-07 
480 1 0.142895 0.214287 0.0842231 55.845 2.32513e-08 
481 1 0.178571 0.214286 0.0416667 55.845 -1.29961e-07 
490 1 0.142819 0.142861 0.0842102 55.845 -1.57424e-07 
491 1 0.178571 0.142857 0.0416667 55.845 -2.73366e-07 
492 1 0.178465 0.178574 0.084036 55.845 3.85724e-08 
493 1 0.214286 0.178571 0.0416667 55.845 -8.72948e-08 
494 1 0.214203 0.214264 0.084069 55.845 -1.3276e-07 
495 1 0.25 0.214286 0.0416667 55.845 -3.93159e-08 
504 1 0.214284 0.14295 0.0840667 55.845 -2.32108e-07 
505 1 0.25 0.142857 0.0416667 55.845 -8.98333e-08 
506 1 0.250022 0.178556 0.0840419 55.845 -1.98564e-07 
571 1 0.142857 0.214286 0 55.845 -8.8588e-08 
576 1 0.142857 0.142857 0 55.845 -3.20039e-07 
577 1 0.178571 0.178571 0 55.845 -2.20478e-07 
578 1 0.214286 0.214286 0 55.845 1.65658e-07 
583 1 0.214286 0.142857 0 55.845 3.86262e-08 
584 1 0.25 0.178571 0 55.845 -8.11668e-08 
303 1 0.28572 0.178625 0.209303 55.845 1.77917e-07 
305 1 0.321429 0.214275 0.209219 55.845 -2.04944e-07 
315 1 0.321444 0.142887 0.209341 55.845 -1.03652e-07 
317 1 0.357129 0.178551 0.209376 55.845 5.51357e-08 
405 1 0.285732 0.17858 0.126105 55.845 1.81346e-07 
406 1 0.285675 0.214311 0.167636 55.845 3.45519e-07 
407 1 0.321443 0.214287 0.12602 55.845 -7.46406e-08 
416 1 0.285716 0.142868 0.167671 55.845 2.15598e-07 
417 1 0.321404 0.142841 0.126014 55.845 -7.78929e-08 
418 1 0.321453 0.178512 0.167681 55.845 3.5884e-07 
419 1 0.357151 0.178574 0.126143 55.845 -2.01722e-08 
420 1 0.357224 0.214235 0.167631 55.845 -1.23114e-08 
432 1 0.357158 0.142861 0.167669 55.845 7.90789e-08 
507 1 0.285714 0.178571 0.0416667 55.845 -4.03344e-07 
508 1 0.285709 0.214246 0.0840881 55.845 -3.19278e-07 
509 1 0.321429 0.214286 0.0416667 55.845 -1.90564e-07 
518 1 0.285694 0.142875 0.0841159 55.845 -3.93062e-07 
519 1 0.321429 0.142857 0.0416667 55.845 -1.10641e-07 
520 1 0.321479 0.178515 0.0841037 55.845 -4.0954e-07 
521 1 0.357143 0.178571 0.0416667 55.845 1.51439e-07 
522 1 0.357122 0.214299 0.0840662 55.845 -3.30782e-07 
534 1 0.357146 0.142851 0.0840683 55.845 -9.87359e-08 
585 1 0.285714 0.214286 0 55.845 8.79722e-08 
590 1 0.285714 0.142857 0 55.845 -1.26719e-07 
591 1 0.321429 0.178571 0 55.845 4.32869e-09 
592 1 0.357143 0.214286 0 55.845 3.69693e-08 
598 1 0.357143 0.142857 0 55.845 2.72744e-07 
319 1 0.392852 0.214201 0.209358 55.845 -1.40355e-07 
321 1 0.428481 0.249986 0.209344 55.845 -4.88739e-08 
331 1 0.392886 0.142786 0.209374 55.845 -2.71114e-07 
333 1 0.428575 0.178577 0.209294 55.845 1.66752e-07 
335 1 0.464271 0.214267 0.209319 55.845 -2.76966e-07 
345 1 0.464318 0.142784 0.209325 55.845 -4.98123e-08 
606 1 0.464286 0.178571 0 55.845 1.4144e-08 
421 1 0.392903 0.214273 0.12609 55.845 -7.98538e-09 
422 1 0.392864 0.250023 0.167693 55.845 1.15597e-07 
423 1 0.428556 0.249959 0.126071 55.845 -1.51074e-08 
433 1 0.392857 0.142844 0.126013 55.845 5.59931e-08 
434 1 0.39282 0.178535 0.167698 55.845 3.29944e-07 
435 1 0.428617 0.178602 0.126037 55.845 4.04321e-07 
436 1 0.428572 0.214248 0.167623 55.845 2.45076e-07 
437 1 0.464316 0.21428 0.126094 55.845 -1.02728e-07 
605 1 0.428571 0.142857 0 55.845 -1.65097e-08 
446 1 0.428615 0.142876 0.167609 55.845 3.21244e-07 
447 1 0.464342 0.142895 0.126105 55.845 2.18579e-07 
448 1 0.464315 0.178524 0.167762 55.845 4.45278e-07 
523 1 0.392857 0.214286 0.0416667 55.845 -8.58991e-08 
524 1 0.392852 0.249975 0.0841104 55.845 -7.35798e-08 
525 1 0.428571 0.25 0.0416667 55.845 -1.57633e-07 
535 1 0.392857 0.142857 0.0416667 55.845 1.3645e-07 
536 1 0.392889 0.178551 0.0841573 55.845 1.01474e-07 
537 1 0.428571 0.178571 0.0416667 55.845 1.39794e-07 
538 1 0.428542 0.214201 0.084031 55.845 -2.5356e-07 
539 1 0.464286 0.214286 0.0416667 55.845 -3.33604e-07 
548 1 0.428649 0.142857 0.0841756 55.845 1.38965e-07 
549 1 0.464286 0.142857 0.0416667 55.845 1.4996e-07 
550 1 0.464271 0.178516 0.0841436 55.845 7.05729e-08 
593 1 0.392857 0.25 0 55.845 -2.51653e-08 
599 1 0.392857 0.178571 0 55.845 1.5428e-07 
600 1 0.428571 0.214286 0 55.845 -3.18806e-07 
3 1 -3.14589e-05 0.107106 0.462876 55.845 -4.40357e-07 
7 1 4.42059e-05 0.035718 0.462816 55.845 9.22117e-08 
8 1 0.0356997 0.071429 0.462762 55.845 -1.15212e-07 
9 1 0.071427 0.107122 0.462708 55.845 -1.76599e-07 
13 1 0.0358244 -2.53966e-05 0.462608 55.845 -2.59604e-07 
14 1 0.0714394 0.0356564 0.462841 55.845 3.73966e-08 
15 1 0.107137 0.0713859 0.4628 55.845 -3.02963e-07 
20 1 0.107189 -3.33502e-05 0.462828 55.845 -2.66657e-07 
55 1 -3.28583e-05 0.107166 0.378906 55.845 2.70529e-07 
63 1 -5.0539e-05 0.0357436 0.378633 55.845 5.29244e-07 
64 1 1.81393e-05 0.0714122 0.420775 55.845 -9.31815e-08 
65 1 0.0357154 0.0714471 0.378888 55.845 3.82933e-07 
66 1 0.0356261 0.107155 0.42084 55.845 -4.48246e-07 
67 1 0.0714306 0.107135 0.378799 55.845 -2.80922e-08 
74 1 2.63005e-06 2.32501e-05 0.420713 55.845 -2.90282e-07 
75 1 0.0356794 5.68387e-05 0.378808 55.845 1.50896e-07 
76 1 0.0356634 0.0357264 0.420776 55.845 -2.87571e-08 
77 1 0.0714548 0.0357326 0.378839 55.845 5.13232e-07 
78 1 0.071428 0.0713894 0.420713 55.845 -1.17007e-07 
79 1 0.107165 0.0714673 0.378911 55.845 2.0595e-07 
80 1 0.107093 0.107124 0.420692 55.845 -3.25997e-07 
88 1 0.0714386 -2.9837e-05 0.420848 55.845 -2.52388e-07 
89 1 0.107156 -2.99821e-05 0.378833 55.845 7.09882e-08 
90 1 0.107154 0.035716 0.420848 55.845 -1.58825e-07 
157 1 -3.56091e-05 0.107075 0.29478 55.845 -4.76926e-07 
165 1 1.56728e-05 0.0357252 0.294846 55.845 -1.67699e-07 
166 1 4.11648e-05 0.0714818 0.337247 55.845 4.91218e-07 
167 1 0.035718 0.0714058 0.294902 55.845 -4.45298e-07 
168 1 0.0357152 0.107109 0.337205 55.845 -1.08542e-08 
169 1 0.07143 0.107136 0.294814 55.845 -4.59979e-07 
176 1 7.10948e-05 3.27418e-06 0.337299 55.845 1.78336e-07 
177 1 0.0357611 1.37747e-05 0.294812 55.845 -1.80086e-07 
178 1 0.035656 0.0357213 0.337216 55.845 5.79843e-07 
179 1 0.0714374 0.0356514 0.294963 55.845 -9.43364e-08 
180 1 0.0714381 0.0713794 0.337338 55.845 2.77723e-07 
181 1 0.107092 0.0714173 0.29495 55.845 -3.55301e-07 
182 1 0.107142 0.107128 0.337363 55.845 2.11051e-07 
190 1 0.0714396 2.37712e-05 0.337335 55.845 4.10691e-07 
191 1 0.107097 3.87201e-05 0.294822 55.845 -7.09264e-10 
192 1 0.107216 0.0356644 0.337339 55.845 4.1204e-07 
268 1 1.37521e-05 0.0714231 0.251905 55.845 -7.84305e-08 
270 1 0.0357366 0.107116 0.251762 55.845 -1.42922e-07 
278 1 6.29194e-05 4.0505e-05 0.251876 55.845 1.58063e-07 
280 1 0.0357686 0.0357078 0.251806 55.845 1.22536e-07 
282 1 0.071449 0.0714386 0.251927 55.845 -5.44978e-08 
284 1 0.10709 0.107146 0.251846 55.845 2.74816e-07 
292 1 0.0714236 1.05949e-05 0.251941 55.845 2.48561e-07 
294 1 0.107168 0.0357301 0.251964 55.845 4.10867e-08 
16 1 0.142896 0.10715 0.462668 55.845 -4.04856e-08 
21 1 0.142872 0.0357436 0.462818 55.845 -2.65906e-07 
22 1 0.178631 0.0714242 0.462753 55.845 -2.35957e-07 
23 1 0.214263 0.107179 0.462797 55.845 -1.95434e-07 
27 1 0.178583 2.25871e-05 0.462644 55.845 -1.00296e-07 
28 1 0.214334 0.0357752 0.46268 55.845 -5.52695e-07 
29 1 0.250026 0.071499 0.462791 55.845 -3.97079e-07 
81 1 0.142928 0.107234 0.378831 55.845 2.35349e-07 
91 1 0.14282 0.0357 0.378893 55.845 2.99436e-07 
92 1 0.1429 0.0714425 0.42079 55.845 -3.50369e-07 
93 1 0.178596 0.0714974 0.378828 55.845 4.92794e-08 
94 1 0.178571 0.107152 0.420772 55.845 -1.96431e-07 
95 1 0.214333 0.107184 0.378722 55.845 3.0461e-07 
102 1 0.142851 6.9681e-06 0.420683 55.845 -1.82165e-07 
103 1 0.178592 6.12207e-05 0.378736 55.845 7.35052e-07 
104 1 0.178609 0.0357378 0.420737 55.845 -2.16094e-07 
105 1 0.214332 0.0357013 0.378734 55.845 1.64526e-07 
106 1 0.214367 0.0714481 0.420763 55.845 -6.52559e-07 
107 1 0.250075 0.0715046 0.378662 55.845 8.47876e-08 
108 1 0.249968 0.107179 0.420629 55.845 -2.79663e-07 
118 1 0.214313 -2.39246e-06 0.420793 55.845 -3.2205e-07 
120 1 0.250035 0.0357743 0.420607 55.845 -6.37627e-07 
183 1 0.14284 0.107155 0.294736 55.845 -1.03415e-07 
193 1 0.142844 0.0357034 0.294847 55.845 -3.11905e-07 
194 1 0.142856 0.0714161 0.337335 55.845 1.39139e-07 
195 1 0.178535 0.0714333 0.29474 55.845 -3.60999e-07 
196 1 0.178585 0.107145 0.337103 55.845 4.12581e-07 
197 1 0.214313 0.107144 0.294744 55.845 -8.73884e-08 
204 1 0.142873 -4.81679e-05 0.337129 55.845 4.80281e-07 
205 1 0.178632 2.29747e-06 0.294703 55.845 -1.36239e-07 
206 1 0.178577 0.035731 0.337157 55.845 3.214e-07 
207 1 0.214296 0.03569 0.29462 55.845 -3.39011e-07 
208 1 0.214345 0.0714577 0.337177 55.845 2.32547e-07 
209 1 0.250048 0.0714073 0.294716 55.845 -1.89289e-07 
210 1 0.249989 0.107156 0.337044 55.845 5.49108e-07 
220 1 0.214301 1.71629e-05 0.337231 55.845 5.2456e-07 
222 1 0.250037 0.0356821 0.337212 55.845 3.07021e-07 
296 1 0.14284 0.0714337 0.251838 55.845 5.58412e-08 
298 1 0.178548 0.107194 0.251875 55.845 2.28852e-07 
306 1 0.142836 1.56921e-06 0.251817 55.845 2.82684e-07 
308 1 0.178583 0.0357709 0.251643 55.845 -7.1576e-08 
310 1 0.214243 0.071488 0.251945 55.845 2.16524e-07 
312 1 0.250008 0.107148 0.251793 55.845 1.96443e-08 
322 1 0.214281 -3.69697e-05 0.251824 55.845 -1.84293e-07 
324 1 0.250048 0.035709 0.251812 55.845 3.41126e-08 
30 1 0.285657 0.107143 0.462673 55.845 -1.48207e-07 
35 1 0.249975 2.3455e-05 0.462668 55.845 -5.00414e-07 
36 1 0.285744 0.0356944 0.462572 55.845 -1.40248e-07 
37 1 0.321454 0.0713784 0.462769 55.845 -3.17706e-07 
38 1 0.357096 0.107127 0.462874 55.845 -1.93272e-07 
42 1 0.321438 -3.18271e-05 0.462672 55.845 -6.34208e-08 
43 1 0.357134 0.0357242 0.462776 55.845 -2.17279e-07 
109 1 0.285768 0.107145 0.378787 55.845 5.23757e-07 
119 1 0.249987 -7.99701e-05 0.378797 55.845 9.088e-08 
121 1 0.285823 0.0357192 0.37868 55.845 1.09744e-07 
122 1 0.285706 0.0714138 0.420868 55.845 -3.54292e-07 
123 1 0.321466 0.0713782 0.378689 55.845 2.72892e-07 
124 1 0.321452 0.107154 0.420734 55.845 -2.34425e-07 
125 1 0.357125 0.107119 0.378749 55.845 4.36759e-07 
133 1 0.321496 -1.06548e-06 0.378862 55.845 9.04113e-08 
134 1 0.321479 0.0357375 0.420843 55.845 -4.72132e-07 
135 1 0.35715 0.0357047 0.378726 55.845 2.04847e-07 
136 1 0.357146 0.0714602 0.420718 55.845 -3.98066e-07 
211 1 0.285753 0.107069 0.294838 55.845 -1.69339e-07 
221 1 0.250026 -5.01501e-06 0.294711 55.845 -2.35967e-07 
223 1 0.285757 0.0357107 0.294803 55.845 -4.70846e-07 
224 1 0.285724 0.0714277 0.337179 55.845 3.6204e-07 
225 1 0.321471 0.0714107 0.29472 55.845 -4.80259e-07 
226 1 0.321471 0.10715 0.337204 55.845 6.58267e-07 
227 1 0.357203 0.107118 0.29474 55.845 -1.79564e-07 
235 1 0.321394 -9.38972e-05 0.294812 55.845 -4.55476e-07 
236 1 0.32149 0.0356908 0.337083 55.845 8.88192e-08 
237 1 0.357213 0.0357343 0.294847 55.845 -3.96571e-07 
238 1 0.357261 0.0714434 0.337282 55.845 3.56495e-07 
326 1 0.285778 0.0714308 0.251803 55.845 -2.04943e-07 
328 1 0.321459 0.107142 0.251871 55.845 -1.09737e-07 
338 1 0.321492 0.0356132 0.251747 55.845 -2.81496e-07 
340 1 0.357157 0.0714596 0.25182 55.845 -3.1724e-09 
44 1 0.39282 0.0714104 0.462737 55.845 -2.82516e-07 
45 1 0.42856 0.107196 0.462707 55.845 1.61702e-07 
47 1 0.392773 5.90385e-06 0.462711 55.845 -1.21086e-07 
48 1 0.428577 0.0357402 0.462805 55.845 -1.48251e-07 
49 1 0.464277 0.0714443 0.462696 55.845 -2.13637e-07 
50 1 0.464281 4.23119e-05 0.46277 55.845 -1.49216e-07 
137 1 0.392921 0.0714095 0.378748 55.845 2.39967e-07 
138 1 0.392778 0.107107 0.420814 55.845 1.05101e-07 
139 1 0.428529 0.107148 0.378791 55.845 3.77922e-07 
144 1 0.392859 3.09812e-06 0.37856 55.845 5.33407e-07 
145 1 0.392907 0.0357405 0.420699 55.845 -8.70758e-08 
146 1 0.428555 0.0358103 0.378735 55.845 1.375e-07 
147 1 0.428582 0.071505 0.420857 55.845 -2.6405e-07 
148 1 0.464266 0.0713484 0.3788 55.845 3.87681e-08 
149 1 0.464266 0.107239 0.420662 55.845 -1.31619e-07 
150 1 0.428574 -1.3011e-06 0.42075 55.845 -8.92345e-08 
151 1 0.464288 7.57331e-05 0.378733 55.845 4.46991e-08 
152 1 0.464224 0.0357121 0.420764 55.845 -4.58392e-07 
239 1 0.392845 0.0714587 0.294793 55.845 -1.95661e-07 
240 1 0.392896 0.107185 0.337262 55.845 2.96001e-07 
241 1 0.428612 0.107228 0.294745 55.845 -3.63208e-07 
246 1 0.39277 -7.5938e-05 0.294937 55.845 -3.46537e-07 
247 1 0.392864 0.0357872 0.337159 55.845 4.82656e-07 
248 1 0.428577 0.0357076 0.294902 55.845 -3.32806e-07 
249 1 0.428623 0.0715288 0.337095 55.845 5.54259e-08 
250 1 0.46432 0.0715213 0.294871 55.845 -2.55428e-07 
251 1 0.464242 0.107184 0.337411 55.845 4.2365e-07 
252 1 0.428538 2.08693e-05 0.337148 55.845 1.81077e-07 
253 1 0.464297 6.68573e-05 0.294989 55.845 -5.91054e-07 
254 1 0.464334 0.035798 0.337243 55.845 5.93648e-08 
342 1 0.392874 0.107142 0.251846 55.845 -8.71964e-08 
349 1 0.392912 0.0356801 0.251944 55.845 1.6566e-07 
351 1 0.428652 0.0714679 0.251967 55.845 2.93074e-07 
353 1 0.464373 0.107188 0.251819 55.845 1.82483e-07 
354 1 0.428618 5.35486e-06 0.251989 55.845 -2.45242e-07 
356 1 0.464317 0.0356766 0.251934 55.845 -5.02651e-08 
1 1 -1.03855e-05 0.178636 0.462862 55.845 -1.42668e-07 
2 1 0.0357411 0.214289 0.462697 55.845 -1.54317e-07 
4 1 0.0356759 0.142853 0.462793 55.845 1.47933e-07 
5 1 0.0715083 0.178586 0.462739 55.845 -2.6249e-10 
6 1 0.107169 0.214367 0.462679 55.845 -4.36135e-08 
10 1 0.107114 0.142906 0.462817 55.845 -1.14182e-07 
51 1 5.57413e-05 0.178573 0.378817 55.845 2.08104e-07 
52 1 1.97376e-05 0.214245 0.420723 55.845 -2.57656e-07 
53 1 0.0356847 0.214317 0.378777 55.845 5.01759e-08 
54 1 0.0357507 0.250052 0.420642 55.845 -3.782e-08 
56 1 -8.12676e-06 0.142921 0.420812 55.845 -3.53043e-07 
57 1 0.0357092 0.142838 0.378926 55.845 1.10428e-07 
58 1 0.0357847 0.178604 0.420854 55.845 -2.06753e-07 
59 1 0.0714644 0.178551 0.378715 55.845 2.93705e-07 
60 1 0.0714818 0.214285 0.420727 55.845 -1.42048e-07 
61 1 0.107189 0.214295 0.378837 55.845 4.04415e-07 
62 1 0.107175 0.249996 0.420659 55.845 2.50413e-07 
68 1 0.0713018 0.142838 0.420734 55.845 -1.4143e-07 
69 1 0.10712 0.142887 0.378856 55.845 2.09394e-07 
70 1 0.107123 0.178592 0.420643 55.845 -4.64907e-08 
153 1 6.46972e-05 0.178684 0.29481 55.845 -1.44925e-07 
154 1 -9.99756e-05 0.21422 0.3373 55.845 1.85215e-07 
155 1 0.0356876 0.214265 0.294801 55.845 -2.58723e-07 
156 1 0.035605 0.250004 0.337094 55.845 5.87755e-08 
158 1 4.54915e-05 0.142892 0.337163 55.845 4.77717e-07 
159 1 0.0357249 0.14285 0.294813 55.845 -2.91837e-07 
160 1 0.0357364 0.178554 0.337217 55.845 3.19078e-07 
161 1 0.0714819 0.178566 0.294697 55.845 -1.26395e-07 
162 1 0.071453 0.214306 0.337233 55.845 1.59927e-07 
163 1 0.107141 0.214295 0.294915 55.845 -4.51505e-07 
164 1 0.107144 0.250019 0.337221 55.845 1.31982e-07 
170 1 0.0714192 0.142813 0.337126 55.845 1.93243e-07 
171 1 0.107138 0.142853 0.294774 55.845 -1.5201e-07 
172 1 0.107202 0.178529 0.337158 55.845 3.15923e-07 
256 1 -1.94539e-05 0.214304 0.251885 55.845 6.84422e-08 
258 1 0.0358085 0.250009 0.251758 55.845 -1.27654e-07 
260 1 2.55386e-05 0.142904 0.251858 55.845 -1.13174e-07 
262 1 0.0356954 0.178537 0.251825 55.845 3.39443e-07 
264 1 0.07148 0.21436 0.25188 55.845 7.54593e-08 
266 1 0.107079 0.24997 0.251853 55.845 -1.94882e-07 
272 1 0.0714852 0.142852 0.25177 55.845 2.59479e-07 
274 1 0.107154 0.178544 0.251654 55.845 5.28387e-08 
11 1 0.142863 0.178579 0.462715 55.845 -1.64251e-08 
12 1 0.17855 0.214276 0.462681 55.845 -1.22986e-07 
17 1 0.178556 0.142874 0.462653 55.845 8.52056e-08 
18 1 0.21435 0.17859 0.462672 55.845 -2.07629e-07 
19 1 0.250025 0.214384 0.462706 55.845 -5.41988e-08 
24 1 0.249942 0.142842 0.462722 55.845 -1.36593e-07 
71 1 0.142935 0.178529 0.378719 55.845 1.97469e-07 
72 1 0.142945 0.214242 0.420713 55.845 2.24421e-08 
73 1 0.178644 0.214246 0.378714 55.845 9.35796e-08 
82 1 0.142837 0.142899 0.420807 55.845 -9.45313e-08 
83 1 0.178607 0.14284 0.37878 55.845 2.96619e-07 
84 1 0.178614 0.17852 0.420794 55.845 -3.12904e-07 
85 1 0.214214 0.17863 0.378658 55.845 3.0002e-07 
86 1 0.214331 0.214295 0.420692 55.845 -9.02861e-08 
87 1 0.250016 0.214241 0.378761 55.845 6.77658e-07 
96 1 0.214314 0.142857 0.420725 55.845 -1.96065e-07 
97 1 0.249934 0.142892 0.378606 55.845 2.8626e-07 
98 1 0.249941 0.178601 0.420699 55.845 -2.85685e-07 
173 1 0.142853 0.178551 0.294725 55.845 -3.25373e-07 
174 1 0.14288 0.214324 0.337263 55.845 1.76449e-07 
175 1 0.178542 0.214303 0.294836 55.845 -2.75484e-07 
184 1 0.142893 0.142829 0.337173 55.845 3.88813e-07 
185 1 0.178488 0.142949 0.294722 55.845 -2.17936e-07 
186 1 0.17861 0.178526 0.337061 55.845 1.93865e-07 
187 1 0.214227 0.178569 0.294711 55.845 -3.41541e-07 
188 1 0.214332 0.214274 0.337096 55.845 4.70389e-07 
189 1 0.25 0.214243 0.294843 55.845 -2.06209e-07 
198 1 0.214257 0.14278 0.337143 55.845 4.32736e-07 
199 1 0.250028 0.142938 0.294839 55.845 -2.35047e-07 
200 1 0.249939 0.178524 0.337203 55.845 3.75748e-07 
276 1 0.142845 0.214294 0.251847 55.845 1.20627e-07 
286 1 0.142865 0.142854 0.251765 55.845 8.25833e-08 
288 1 0.178575 0.178563 0.251766 55.845 -3.66469e-08 
290 1 0.214302 0.214307 0.251768 55.845 3.84985e-08 
300 1 0.21432 0.14288 0.251845 55.845 -3.60053e-08 
302 1 0.250031 0.178601 0.251801 55.845 1.65779e-08 
25 1 0.28565 0.178584 0.462626 55.845 -4.03653e-07 
26 1 0.32139 0.214219 0.462625 55.845 -1.96365e-07 
31 1 0.321423 0.14282 0.462602 55.845 -1.64585e-07 
32 1 0.357101 0.178605 0.462691 55.845 7.9266e-09 
99 1 0.285658 0.178592 0.378747 55.845 7.18595e-08 
100 1 0.285747 0.214295 0.420672 55.845 -1.94298e-07 
101 1 0.321428 0.214354 0.378723 55.845 2.29916e-07 
110 1 0.28565 0.142881 0.420623 55.845 -3.49508e-07 
111 1 0.321344 0.142876 0.378636 55.845 1.70651e-07 
112 1 0.321391 0.178536 0.420739 55.845 -6.39991e-07 
113 1 0.357071 0.178572 0.378734 55.845 -2.73778e-07 
114 1 0.357164 0.214199 0.420573 55.845 -7.67829e-08 
126 1 0.357101 0.142845 0.420673 55.845 -2.53351e-07 
201 1 0.285699 0.178567 0.294744 55.845 -2.11082e-07 
202 1 0.285686 0.214315 0.33715 55.845 4.61089e-07 
203 1 0.321364 0.214282 0.294688 55.845 -3.47193e-07 
212 1 0.28573 0.142853 0.337069 55.845 4.75508e-07 
213 1 0.321497 0.142912 0.294795 55.845 5.4521e-09 
214 1 0.32138 0.178607 0.337083 55.845 6.39118e-08 
215 1 0.357147 0.178549 0.294768 55.845 -4.00773e-07 