ITEM: TIMESTEP
3300
ITEM: NUMBER OF ATOMS
5880
ITEM: BOX BOUNDS pp pp ff
-27.9762 27.9762
-27.9762 27.9762
0 34.092
ITEM: ATOMS id type xs ys zs mass q 
259 1 -3.1716e-05 0.107089 0.209587 55.845 1.13641e-07 
267 1 -1.63488e-05 0.0356664 0.209391 55.845 -1.17778e-07 
269 1 0.0356417 0.0714212 0.209515 55.845 -1.46772e-07 
271 1 0.0714201 0.107115 0.2095 55.845 1.12695e-07 
279 1 0.0357203 5.46746e-05 0.209358 55.845 -6.77408e-08 
281 1 0.0714606 0.0357167 0.209381 55.845 7.1283e-08 
283 1 0.107183 0.0715072 0.209377 55.845 -4.736e-08 
293 1 0.107174 -1.74695e-06 0.209407 55.845 1.70452e-07 
361 1 8.23831e-06 0.107197 0.125331 55.845 6.1648e-08 
369 1 -1.25396e-05 0.0356354 0.125205 55.845 -8.02551e-08 
370 1 9.03714e-06 0.0714068 0.167415 55.845 -7.13616e-08 
371 1 0.0356816 0.0713804 0.125303 55.845 1.81818e-07 
372 1 0.0357026 0.107134 0.167567 55.845 -3.85091e-07 
373 1 0.0714624 0.107124 0.125275 55.845 -3.0976e-08 
380 1 -1.60544e-05 -3.75687e-05 0.167487 55.845 -1.30022e-07 
381 1 0.0357432 2.51277e-05 0.125259 55.845 5.0059e-08 
382 1 0.035755 0.0357242 0.167344 55.845 -1.84515e-07 
383 1 0.0714517 0.03566 0.125307 55.845 2.88828e-07 
384 1 0.0713645 0.0713977 0.167483 55.845 9.5502e-08 
385 1 0.107213 0.0713856 0.125256 55.845 -4.90738e-08 
386 1 0.107177 0.107185 0.16753 55.845 -1.45949e-07 
394 1 0.0714384 3.90985e-05 0.167477 55.845 8.44737e-08 
395 1 0.107156 1.76891e-05 0.12527 55.845 1.94094e-07 
396 1 0.107093 0.0357246 0.16745 55.845 -2.69211e-08 
463 1 0 0.107143 0.0416667 55.845 -4.57677e-08 
471 1 0 0.0357143 0.0416667 55.845 -5.44068e-09 
472 1 2.3653e-05 0.0713713 0.0833795 55.845 -3.45321e-07 
473 1 0.0357143 0.0714286 0.0416667 55.845 2.5096e-07 
474 1 0.0357336 0.107076 0.08341 55.845 -2.91742e-08 
475 1 0.0714286 0.107143 0.0416667 55.845 -1.99888e-08 
482 1 4.68046e-05 -2.15448e-05 0.0833466 55.845 1.88701e-07 
483 1 0.0357143 0 0.0416667 55.845 1.60904e-07 
484 1 0.0357379 0.0357537 0.0832554 55.845 1.42812e-07 
485 1 0.0714286 0.0357143 0.0416667 55.845 5.9882e-08 
486 1 0.0714368 0.0714027 0.083418 55.845 -4.35604e-07 
487 1 0.107143 0.0714286 0.0416667 55.845 -1.08664e-07 
488 1 0.107128 0.107111 0.0833448 55.845 1.47098e-07 
496 1 0.0714813 6.94396e-05 0.0834909 55.845 1.79338e-07 
497 1 0.107143 0 0.0416667 55.845 -1.52341e-08 
498 1 0.107188 0.0357898 0.0831984 55.845 6.77592e-08 
567 1 0 0.0714286 0 55.845 -2.06789e-07 
568 1 0.0357143 0.107143 0 55.845 -1.46885e-07 
572 1 0 0 0 55.845 1.00206e-07 
573 1 0.0357143 0.0357143 0 55.845 -1.62156e-07 
574 1 0.0714286 0.0714286 0 55.845 -2.45183e-07 
575 1 0.107143 0.107143 0 55.845 -2.68042e-07 
579 1 0.0714286 0 0 55.845 -8.21416e-08 
580 1 0.107143 0.0357143 0 55.845 -4.28049e-07 
285 1 0.142903 0.107139 0.209495 55.845 5.78658e-08 
295 1 0.142784 0.0357148 0.209377 55.845 5.1838e-08 
297 1 0.178508 0.071466 0.209399 55.845 -2.97757e-07 
299 1 0.214293 0.107095 0.209436 55.845 1.45094e-07 
307 1 0.178566 4.27561e-05 0.20954 55.845 8.42522e-08 
309 1 0.214226 0.0356819 0.209244 55.845 5.86935e-09 
311 1 0.250007 0.0714174 0.209428 55.845 -2.56788e-07 
387 1 0.142873 0.107147 0.125322 55.845 -1.1686e-07 
397 1 0.142843 0.0357215 0.125169 55.845 -5.76521e-08 
398 1 0.142843 0.0714551 0.167483 55.845 1.85733e-07 
399 1 0.178551 0.0714617 0.125232 55.845 -6.37759e-08 
400 1 0.178612 0.107183 0.167476 55.845 -1.00794e-07 
401 1 0.214237 0.107173 0.125203 55.845 1.59958e-07 
408 1 0.142847 -5.4702e-05 0.167297 55.845 -5.53346e-09 
409 1 0.17859 6.00741e-05 0.125329 55.845 -3.76045e-08 
410 1 0.178429 0.0357504 0.167374 55.845 1.8374e-08 
411 1 0.214304 0.03574 0.12514 55.845 -3.53853e-08 
412 1 0.21423 0.0713802 0.167393 55.845 1.9564e-07 
413 1 0.250024 0.0714597 0.125256 55.845 7.97173e-08 
414 1 0.250063 0.107162 0.16745 55.845 -1.68024e-07 
424 1 0.214314 3.06901e-05 0.167565 55.845 2.32883e-07 
426 1 0.250005 0.035693 0.167447 55.845 -1.51867e-07 
489 1 0.142857 0.107143 0.0416667 55.845 -1.52623e-07 
499 1 0.142857 0.0357143 0.0416667 55.845 -1.50309e-07 
500 1 0.142847 0.0714015 0.0833768 55.845 -1.76744e-07 
501 1 0.178571 0.0714286 0.0416667 55.845 7.78616e-08 
502 1 0.178554 0.107127 0.0832691 55.845 3.27707e-07 
503 1 0.214286 0.107143 0.0416667 55.845 1.41681e-07 
510 1 0.142897 -2.92181e-05 0.0833429 55.845 1.90892e-07 
511 1 0.178571 0 0.0416667 55.845 -1.13531e-07 
512 1 0.178595 0.0357514 0.0834008 55.845 3.15515e-07 
513 1 0.214286 0.0357143 0.0416667 55.845 -8.81325e-08 
514 1 0.214264 0.0715138 0.0833864 55.845 -1.82912e-07 
515 1 0.25 0.0714286 0.0416667 55.845 5.72162e-08 
516 1 0.250004 0.107182 0.0832841 55.845 -9.3906e-09 
526 1 0.214298 -5.89811e-05 0.0834189 55.845 2.14954e-07 
528 1 0.250071 0.0356893 0.0833086 55.845 6.70848e-08 
581 1 0.142857 0.0714286 0 55.845 -2.09756e-07 
582 1 0.178571 0.107143 0 55.845 -5.13176e-08 
586 1 0.142857 0 0 55.845 -6.41392e-08 
587 1 0.178571 0.0357143 0 55.845 -2.10207e-07 
588 1 0.214286 0.0714286 0 55.845 -3.54492e-07 
589 1 0.25 0.107143 0 55.845 -3.69761e-07 
594 1 0.214286 0 0 55.845 -1.00274e-07 
595 1 0.25 0.0357143 0 55.845 -1.94741e-07 
313 1 0.285674 0.107148 0.209402 55.845 1.9657e-07 
323 1 0.24998 -1.31227e-06 0.209515 55.845 2.07952e-07 
325 1 0.285782 0.0356858 0.209517 55.845 -1.19613e-07 
327 1 0.321453 0.0714615 0.209491 55.845 -2.2689e-07 
329 1 0.357143 0.107181 0.209498 55.845 4.84649e-07 
337 1 0.321518 1.47167e-07 0.20947 55.845 2.58776e-07 
339 1 0.357177 0.035721 0.209344 55.845 -6.36322e-09 
415 1 0.285713 0.107053 0.125231 55.845 8.92158e-08 
425 1 0.25001 1.89822e-05 0.125292 55.845 -4.01968e-08 
427 1 0.285708 0.0357537 0.12524 55.845 -2.45776e-07 
428 1 0.285723 0.0713782 0.167561 55.845 -8.55886e-08 
429 1 0.321419 0.0713817 0.125254 55.845 -7.97997e-08 
430 1 0.321463 0.107057 0.167483 55.845 6.84689e-08 
431 1 0.357137 0.107078 0.125278 55.845 1.1678e-07 
439 1 0.321557 1.24813e-05 0.12519 55.845 -5.37464e-08 
440 1 0.321482 0.0356807 0.167388 55.845 -1.54202e-07 
441 1 0.357112 0.0357305 0.125198 55.845 4.45305e-08 
442 1 0.357154 0.0713913 0.167484 55.845 1.71584e-07 
517 1 0.285714 0.107143 0.0416667 55.845 -2.12236e-07 
527 1 0.25 0 0.0416667 55.845 -9.92966e-08 
529 1 0.285714 0.0357143 0.0416667 55.845 -3.47508e-08 
530 1 0.285726 0.0713809 0.083265 55.845 -1.63149e-07 
531 1 0.321429 0.0714286 0.0416667 55.845 -1.36698e-07 
532 1 0.321411 0.107122 0.0833 55.845 5.21555e-08 
533 1 0.357143 0.107143 0.0416667 55.845 -2.98109e-07 
603 1 0.357143 0.0714286 0 55.845 -4.09478e-07 
541 1 0.321429 0 0.0416667 55.845 -9.95357e-08 
542 1 0.321442 0.035693 0.0832731 55.845 2.99668e-07 
543 1 0.357143 0.0357143 0.0416667 55.845 -1.25546e-07 
544 1 0.357199 0.071428 0.0833691 55.845 -2.29341e-07 
602 1 0.321429 0.0357143 0 55.845 -1.11518e-07 
596 1 0.285714 0.0714286 0 55.845 -3.41662e-07 
597 1 0.321429 0.107143 0 55.845 -5.94778e-07 
612 1 0.464286 0.0357143 0 55.845 -1.17147e-07 
611 1 0.428571 0 0 55.845 -3.54372e-08 
610 1 0.464286 0.107143 0 55.845 -2.45722e-07 
609 1 0.428571 0.0714286 0 55.845 -1.02665e-07 
608 1 0.392857 0.0357143 0 55.845 -1.34094e-07 
341 1 0.392925 0.071441 0.209389 55.845 -1.14301e-07 
343 1 0.428562 0.107105 0.209398 55.845 9.98295e-08 
348 1 0.392836 3.87269e-05 0.209507 55.845 1.35136e-07 
350 1 0.428664 0.0356546 0.209457 55.845 -1.20549e-09 
352 1 0.464225 0.071402 0.20939 55.845 -3.21925e-08 
355 1 0.464366 -1.34894e-05 0.20947 55.845 3.00374e-07 
443 1 0.392965 0.0713464 0.125197 55.845 3.62194e-08 
444 1 0.392873 0.107116 0.167472 55.845 -2.04117e-07 
445 1 0.428639 0.107151 0.125253 55.845 -7.01726e-08 
604 1 0.392857 0.107143 0 55.845 -4.35446e-07 
450 1 0.39288 3.60729e-05 0.12529 55.845 1.86928e-07 
451 1 0.392927 0.0356422 0.167478 55.845 -7.63522e-08 
452 1 0.428574 0.035668 0.125179 55.845 -8.59582e-08 
453 1 0.428567 0.071396 0.167417 55.845 -2.15045e-07 
454 1 0.464321 0.0714677 0.125212 55.845 -1.23646e-07 
455 1 0.464303 0.107108 0.167612 55.845 6.72314e-08 
456 1 0.428621 -1.48841e-05 0.167466 55.845 -1.23354e-07 
457 1 0.464272 2.8534e-05 0.125295 55.845 5.57598e-08 
458 1 0.464292 0.0357511 0.167471 55.845 -1.83931e-07 
545 1 0.392857 0.0714286 0.0416667 55.845 4.30932e-08 
546 1 0.392818 0.107112 0.0833141 55.845 -2.87087e-07 
547 1 0.428571 0.107143 0.0416667 55.845 -2.6485e-07 
552 1 0.392857 0 0.0416667 55.845 -1.07048e-07 
553 1 0.392845 0.0357009 0.0832978 55.845 1.71128e-07 
554 1 0.428571 0.0357143 0.0416667 55.845 -2.14313e-08 
555 1 0.428572 0.0714949 0.0832914 55.845 -3.25832e-07 
556 1 0.464286 0.0714286 0.0416667 55.845 -6.21969e-08 
557 1 0.464303 0.10721 0.0832913 55.845 1.28965e-07 
558 1 0.428568 3.62988e-06 0.0832881 55.845 3.52974e-07 
559 1 0.464286 0 0.0416667 55.845 -4.69337e-08 
560 1 0.464302 0.0356782 0.0833506 55.845 -1.38421e-08 
255 1 -6.5592e-08 0.178535 0.209494 55.845 7.98036e-08 
257 1 0.0356783 0.214212 0.209422 55.845 -8.45692e-08 
261 1 0.0357106 0.142775 0.209546 55.845 4.3313e-07 
263 1 0.0714309 0.178429 0.209437 55.845 9.00288e-08 
265 1 0.107153 0.21425 0.209455 55.845 -9.36093e-08 
273 1 0.107132 0.142936 0.209401 55.845 2.09134e-07 
357 1 4.31359e-05 0.178611 0.125231 55.845 1.04864e-07 
358 1 -1.78928e-05 0.214295 0.167553 55.845 -1.36141e-07 
359 1 0.0357331 0.214217 0.125407 55.845 -2.53307e-08 
360 1 0.0356429 0.249999 0.167412 55.845 5.8521e-09 
362 1 4.07526e-05 0.14286 0.167533 55.845 -1.54388e-07 
363 1 0.035696 0.142888 0.125291 55.845 4.99926e-08 
364 1 0.035705 0.178555 0.167486 55.845 -4.21219e-09 
365 1 0.0715096 0.178645 0.125282 55.845 -1.78426e-07 
366 1 0.0714538 0.214301 0.167521 55.845 2.38794e-07 
367 1 0.107165 0.214376 0.125194 55.845 -1.38553e-07 
368 1 0.107161 0.250043 0.167443 55.845 -1.80724e-07 
374 1 0.0713887 0.142835 0.167423 55.845 1.35104e-07 
375 1 0.107198 0.142826 0.12519 55.845 -8.84473e-08 
376 1 0.107129 0.178555 0.167422 55.845 2.25411e-07 
459 1 0 0.178571 0.0416667 55.845 -1.50705e-07 
460 1 2.51221e-05 0.214261 0.0834478 55.845 -2.96312e-07 
461 1 0.0357143 0.214286 0.0416667 55.845 2.85691e-08 
462 1 0.0356962 0.249971 0.0833216 55.845 2.90003e-07 
464 1 6.58181e-05 0.142866 0.0833434 55.845 -1.03976e-07 
465 1 0.0357143 0.142857 0.0416667 55.845 -2.31097e-07 
466 1 0.035688 0.178551 0.0833001 55.845 -6.50822e-08 
467 1 0.0714286 0.178571 0.0416667 55.845 -3.89524e-07 
468 1 0.0713926 0.214281 0.0832869 55.845 -1.5279e-07 
469 1 0.107143 0.214286 0.0416667 55.845 -4.29705e-08 
470 1 0.107219 0.249992 0.0833659 55.845 1.42409e-07 
476 1 0.0713992 0.14286 0.0834389 55.845 3.75055e-08 
477 1 0.107143 0.142857 0.0416667 55.845 -5.44866e-07 
478 1 0.107143 0.178542 0.0833317 55.845 9.30411e-08 
561 1 0 0.214286 0 55.845 -3.47937e-07 
562 1 0.0357143 0.25 0 55.845 -2.7864e-08 
563 1 0 0.142857 0 55.845 -1.25478e-07 
564 1 0.0357143 0.178571 0 55.845 -4.53982e-07 
565 1 0.0714286 0.214286 0 55.845 -2.3321e-07 
566 1 0.107143 0.25 0 55.845 -4.41721e-09 
569 1 0.0714286 0.142857 0 55.845 -2.70874e-07 
570 1 0.107143 0.178571 0 55.845 -6.15725e-07 
275 1 0.14286 0.178589 0.209358 55.845 -3.39475e-09 
277 1 0.178679 0.214258 0.209403 55.845 -1.36828e-07 
287 1 0.178582 0.142854 0.20948 55.845 1.57175e-07 
289 1 0.214308 0.178577 0.209427 55.845 -3.73404e-08 
291 1 0.250073 0.214276 0.209633 55.845 -3.40965e-07 
301 1 0.250052 0.142818 0.209399 55.845 2.14851e-07 
377 1 0.142831 0.178585 0.125169 55.845 -1.13032e-08 
378 1 0.142877 0.214323 0.167499 55.845 -2.92372e-08 
379 1 0.178605 0.214261 0.125276 55.845 1.23593e-07 
388 1 0.142886 0.142827 0.167461 55.845 2.56828e-07 
389 1 0.178607 0.142869 0.125279 55.845 6.85458e-08 
390 1 0.178607 0.178481 0.167448 55.845 -9.96772e-09 
391 1 0.214286 0.178532 0.125307 55.845 -6.83863e-08 
392 1 0.214391 0.214206 0.167341 55.845 -1.00689e-07 
393 1 0.24999 0.214269 0.125316 55.845 1.31328e-08 
402 1 0.214211 0.142821 0.167547 55.845 -3.75856e-08 
403 1 0.249996 0.142852 0.125259 55.845 5.80608e-08 
404 1 0.250053 0.178575 0.167654 55.845 -7.27175e-08 
479 1 0.142857 0.178571 0.0416667 55.845 -2.72913e-07 
480 1 0.142924 0.214272 0.083336 55.845 -1.671e-07 
481 1 0.178571 0.214286 0.0416667 55.845 2.76572e-07 
490 1 0.142832 0.142765 0.0833651 55.845 3.29471e-07 
491 1 0.178571 0.142857 0.0416667 55.845 -3.557e-08 
492 1 0.178596 0.178644 0.0833368 55.845 2.99424e-08 
493 1 0.214286 0.178571 0.0416667 55.845 1.50899e-07 
494 1 0.214248 0.214337 0.0832755 55.845 -3.00107e-07 
495 1 0.25 0.214286 0.0416667 55.845 6.97612e-08 
504 1 0.214267 0.142867 0.083371 55.845 4.60029e-08 
505 1 0.25 0.142857 0.0416667 55.845 -3.65471e-09 
506 1 0.249956 0.17855 0.0833038 55.845 1.01822e-07 
571 1 0.142857 0.214286 0 55.845 -1.75096e-07 
576 1 0.142857 0.142857 0 55.845 -2.06033e-07 
577 1 0.178571 0.178571 0 55.845 -2.56798e-07 
578 1 0.214286 0.214286 0 55.845 -2.2826e-07 
583 1 0.214286 0.142857 0 55.845 6.69729e-08 
584 1 0.25 0.178571 0 55.845 -1.08418e-07 
303 1 0.285722 0.178544 0.209573 55.845 -3.05467e-07 
305 1 0.321484 0.214237 0.209477 55.845 -2.97951e-07 
315 1 0.321421 0.14287 0.209462 55.845 3.00978e-07 
317 1 0.35726 0.178582 0.20945 55.845 -1.26908e-07 
405 1 0.285743 0.178517 0.125234 55.845 -2.37111e-07 
406 1 0.285726 0.214287 0.167518 55.845 3.37485e-07 
407 1 0.321469 0.214291 0.125221 55.845 -1.91028e-07 
416 1 0.285783 0.14288 0.167457 55.845 2.10944e-09 
417 1 0.321436 0.142827 0.125307 55.845 -1.25057e-07 
418 1 0.321465 0.178589 0.167469 55.845 1.50367e-08 
419 1 0.357121 0.178581 0.125298 55.845 -1.93149e-07 
420 1 0.357168 0.214276 0.167498 55.845 1.44865e-07 
432 1 0.357076 0.142897 0.167482 55.845 8.57103e-09 
507 1 0.285714 0.178571 0.0416667 55.845 -3.3645e-08 
508 1 0.285668 0.214222 0.0833666 55.845 2.0303e-07 
509 1 0.321429 0.214286 0.0416667 55.845 -2.08366e-07 
518 1 0.2857 0.142877 0.0834198 55.845 1.84666e-07 
519 1 0.321429 0.142857 0.0416667 55.845 -3.77043e-07 
520 1 0.321445 0.178547 0.0833082 55.845 2.08451e-07 
521 1 0.357143 0.178571 0.0416667 55.845 -9.19229e-08 
522 1 0.35721 0.214345 0.0833964 55.845 -2.35941e-07 
534 1 0.357131 0.142868 0.0832886 55.845 -1.1633e-07 
585 1 0.285714 0.214286 0 55.845 -3.18066e-07 
590 1 0.285714 0.142857 0 55.845 -4.65888e-08 
591 1 0.321429 0.178571 0 55.845 -2.23746e-07 
592 1 0.357143 0.214286 0 55.845 -3.31054e-07 
598 1 0.357143 0.142857 0 55.845 -3.24804e-07 
319 1 0.392888 0.214231 0.209418 55.845 -1.98115e-07 
321 1 0.428566 0.250024 0.209477 55.845 3.76152e-09 
331 1 0.392901 0.142832 0.209468 55.845 2.36696e-07 
333 1 0.428578 0.178531 0.209513 55.845 -2.64602e-07 
335 1 0.464216 0.214274 0.209561 55.845 -3.3753e-07 
345 1 0.464205 0.142773 0.209479 55.845 1.0776e-07 
606 1 0.464286 0.178571 0 55.845 -2.43074e-07 
421 1 0.392885 0.21433 0.12523 55.845 3.10273e-08 
422 1 0.392918 0.24993 0.167429 55.845 -8.00047e-08 
423 1 0.428636 0.250006 0.125325 55.845 -1.2226e-07 
433 1 0.392924 0.1428 0.125338 55.845 2.41699e-08 
434 1 0.392921 0.178601 0.167305 55.845 -2.88558e-07 
435 1 0.428631 0.178569 0.125308 55.845 -4.14665e-08 
436 1 0.428582 0.214343 0.167512 55.845 -1.72796e-07 
437 1 0.464225 0.214378 0.125181 55.845 -1.57542e-07 
605 1 0.428571 0.142857 0 55.845 -3.99361e-07 
446 1 0.428576 0.142942 0.167495 55.845 -1.67943e-07 
447 1 0.46425 0.142863 0.125124 55.845 -1.42833e-08 
448 1 0.464315 0.17856 0.16746 55.845 8.5043e-09 
523 1 0.392857 0.214286 0.0416667 55.845 8.07494e-08 
524 1 0.392801 0.250032 0.0833109 55.845 -1.00902e-07 
525 1 0.428571 0.25 0.0416667 55.845 -1.00129e-07 
535 1 0.392857 0.142857 0.0416667 55.845 -3.07512e-07 
536 1 0.392884 0.1785 0.0833713 55.845 -2.63535e-07 
537 1 0.428571 0.178571 0.0416667 55.845 -1.04165e-07 
538 1 0.428509 0.2142 0.0833126 55.845 -2.40503e-07 
539 1 0.464286 0.214286 0.0416667 55.845 1.83036e-07 
548 1 0.428553 0.142882 0.0833318 55.845 2.09457e-08 
549 1 0.464286 0.142857 0.0416667 55.845 -4.01478e-07 
550 1 0.46434 0.178561 0.0831904 55.845 2.36677e-07 
593 1 0.392857 0.25 0 55.845 -2.33844e-07 
599 1 0.392857 0.178571 0 55.845 -3.44831e-07 
600 1 0.428571 0.214286 0 55.845 -2.73758e-07 
3 1 -6.5855e-05 0.107152 0.459489 55.845 1.82882e-07 
7 1 5.4224e-06 0.0357013 0.459572 55.845 -7.76268e-08 
8 1 0.0357129 0.0714989 0.459487 55.845 -7.97911e-08 
9 1 0.0714932 0.107179 0.459409 55.845 -1.73813e-07 
13 1 0.0357437 2.54992e-05 0.459556 55.845 4.85537e-08 
14 1 0.0713958 0.0357248 0.459433 55.845 2.11678e-08 
15 1 0.107191 0.071376 0.459373 55.845 -2.56316e-07 
20 1 0.107136 3.83345e-05 0.459536 55.845 2.02286e-07 
55 1 -7.71642e-05 0.107167 0.376055 55.845 9.87027e-08 
63 1 3.88925e-05 0.0357396 0.376048 55.845 -1.68011e-07 
64 1 -0.000105672 0.0714246 0.417583 55.845 -2.97581e-07 
65 1 0.0356914 0.0714392 0.376077 55.845 1.87023e-07 
66 1 0.0356714 0.107162 0.417462 55.845 -5.3528e-09 
67 1 0.0713801 0.107088 0.376 55.845 2.85545e-08 
74 1 2.52482e-06 -1.79702e-05 0.4176 55.845 2.45747e-08 
75 1 0.0356447 2.07725e-05 0.37605 55.845 5.20948e-08 
76 1 0.0357513 0.0357238 0.417575 55.845 -1.7587e-07 
77 1 0.0714729 0.0356846 0.375937 55.845 -5.34196e-08 
78 1 0.0713972 0.0713704 0.417482 55.845 -3.91386e-07 
79 1 0.107121 0.0713773 0.376001 55.845 -3.82823e-07 
80 1 0.107136 0.107127 0.41739 55.845 1.73019e-07 
88 1 0.0714496 -1.69558e-05 0.41758 55.845 -5.84279e-08 
89 1 0.107189 5.76226e-05 0.375928 55.845 -9.07307e-08 
90 1 0.107154 0.035711 0.417535 55.845 -3.23837e-07 
157 1 -4.89497e-05 0.107085 0.293804 55.845 1.48637e-07 
165 1 4.84451e-05 0.0356519 0.293644 55.845 -3.58469e-08 
166 1 -1.41252e-05 0.0713853 0.334862 55.845 -7.82034e-08 
167 1 0.0356465 0.0713196 0.293703 55.845 -8.94281e-10 
168 1 0.0357579 0.107116 0.334848 55.845 1.24426e-07 
169 1 0.07143 0.107129 0.293716 55.845 2.81805e-07 
176 1 1.01519e-05 4.11086e-05 0.334829 55.845 4.15741e-07 
177 1 0.0357697 2.40523e-06 0.293667 55.845 4.72101e-09 
178 1 0.0358179 0.0356618 0.334825 55.845 -6.49319e-09 
179 1 0.0714891 0.0357274 0.293631 55.845 -9.04879e-09 
180 1 0.0714208 0.0713291 0.334778 55.845 1.1352e-08 
181 1 0.107136 0.0714832 0.293718 55.845 2.09026e-07 
182 1 0.107116 0.107149 0.334891 55.845 1.44224e-07 
190 1 0.0715 -7.46771e-05 0.33483 55.845 3.13369e-07 
191 1 0.107128 3.2467e-05 0.293504 55.845 6.58091e-08 
192 1 0.107283 0.0357201 0.334787 55.845 -1.69935e-07 
268 1 -5.92802e-06 0.0713926 0.251743 55.845 -3.0509e-07 
270 1 0.0357325 0.107134 0.251894 55.845 -4.42745e-09 
278 1 1.76003e-05 -6.85782e-05 0.251662 55.845 -2.10219e-07 
280 1 0.0357193 0.0357152 0.251648 55.845 -1.30395e-08 
282 1 0.0713987 0.0714203 0.251697 55.845 -1.74013e-08 
284 1 0.107148 0.10723 0.251788 55.845 1.02419e-07 
292 1 0.0713695 8.10115e-05 0.251739 55.845 -3.4555e-07 
294 1 0.107161 0.0357061 0.251791 55.845 2.12926e-07 
16 1 0.142823 0.107134 0.459437 55.845 -2.34128e-07 
21 1 0.142846 0.0357296 0.459529 55.845 -1.89758e-07 
22 1 0.178526 0.0714635 0.459393 55.845 -1.89833e-07 
23 1 0.214299 0.107163 0.459476 55.845 9.67117e-08 
27 1 0.17852 1.91457e-07 0.459449 55.845 3.6551e-08 
28 1 0.214291 0.0357125 0.459417 55.845 -1.43355e-07 
29 1 0.250063 0.0714289 0.459372 55.845 -8.17492e-08 
81 1 0.142772 0.107144 0.375944 55.845 -2.30414e-07 
91 1 0.142878 0.0357769 0.376027 55.845 -2.52971e-07 
92 1 0.14285 0.0714303 0.41755 55.845 -3.80705e-07 
93 1 0.178563 0.0714103 0.375994 55.845 1.12888e-07 
94 1 0.178536 0.107133 0.417446 55.845 7.7058e-08 
95 1 0.214236 0.107142 0.376097 55.845 2.2004e-07 
102 1 0.142845 9.41626e-06 0.417562 55.845 -2.21083e-07 
103 1 0.178514 5.21952e-05 0.375893 55.845 5.50079e-08 
104 1 0.178605 0.0357349 0.417662 55.845 4.70151e-08 
105 1 0.214345 0.0357854 0.376 55.845 1.90797e-07 
106 1 0.214314 0.0713802 0.417585 55.845 -3.28824e-07 
107 1 0.250033 0.0714431 0.375892 55.845 2.36326e-07 
108 1 0.24997 0.107124 0.417629 55.845 -3.46312e-07 
118 1 0.214214 2.07893e-05 0.417501 55.845 3.69973e-08 
120 1 0.25003 0.0356674 0.417578 55.845 -6.5263e-08 
183 1 0.142867 0.107215 0.293622 55.845 8.88514e-08 
193 1 0.142905 0.0357151 0.29365 55.845 1.89322e-07 
194 1 0.142886 0.0714239 0.334809 55.845 1.14712e-07 
195 1 0.178594 0.071423 0.293622 55.845 3.14275e-07 
196 1 0.178634 0.107168 0.334837 55.845 7.25647e-08 
197 1 0.214316 0.107134 0.293727 55.845 1.71882e-07 
204 1 0.142887 -1.25499e-05 0.334775 55.845 4.08047e-07 
205 1 0.178534 6.04361e-05 0.293717 55.845 3.12341e-07 
206 1 0.178587 0.0357238 0.334936 55.845 8.00864e-08 
207 1 0.214306 0.0357011 0.293616 55.845 1.59119e-07 
208 1 0.214265 0.0714395 0.334848 55.845 8.57146e-08 
209 1 0.250001 0.0714569 0.293803 55.845 1.65865e-07 
210 1 0.250015 0.107118 0.334932 55.845 -7.95328e-08 
220 1 0.21426 2.15425e-06 0.334911 55.845 3.98837e-07 
222 1 0.250024 0.035692 0.334879 55.845 2.18272e-08 
296 1 0.142859 0.0714448 0.251797 55.845 5.73492e-08 
298 1 0.17861 0.107139 0.251752 55.845 1.88685e-08 
306 1 0.142885 6.10607e-05 0.25172 55.845 -2.44935e-07 
308 1 0.178593 0.0358484 0.25174 55.845 1.07516e-07 
310 1 0.214289 0.0714268 0.251709 55.845 -2.84221e-08 
312 1 0.250043 0.107132 0.251723 55.845 1.42495e-07 
322 1 0.214289 -1.15477e-05 0.251807 55.845 -8.10615e-08 
324 1 0.250051 0.0357216 0.251765 55.845 1.15887e-07 
30 1 0.285725 0.107155 0.459573 55.845 6.36811e-08 
35 1 0.250012 1.53243e-06 0.459476 55.845 -6.93621e-08 
36 1 0.28578 0.0357434 0.459391 55.845 -1.35517e-07 
37 1 0.321441 0.0714516 0.459472 55.845 -1.82777e-07 
38 1 0.357172 0.107195 0.459582 55.845 -2.61047e-07 
42 1 0.321412 -2.15725e-05 0.459435 55.845 -1.10775e-07 
43 1 0.357215 0.0357438 0.459475 55.845 -2.1664e-07 
109 1 0.285756 0.107132 0.376089 55.845 9.46937e-08 
119 1 0.249978 -4.91661e-05 0.376056 55.845 -2.51019e-07 
121 1 0.285767 0.03571 0.375962 55.845 -5.57741e-08 
122 1 0.285761 0.0714362 0.417587 55.845 -2.73939e-07 
123 1 0.321403 0.0714573 0.375952 55.845 5.7908e-08 
124 1 0.321416 0.10723 0.417617 55.845 -2.03092e-07 
125 1 0.357166 0.107204 0.376086 55.845 -2.71632e-07 
133 1 0.321477 3.91671e-05 0.376123 55.845 -3.02287e-07 
134 1 0.321445 0.0357535 0.417575 55.845 1.16363e-07 
135 1 0.357241 0.0357533 0.376018 55.845 -1.58262e-07 
136 1 0.357142 0.0715015 0.417543 55.845 -2.72333e-07 
211 1 0.285716 0.107151 0.293608 55.845 1.37236e-07 
221 1 0.249982 3.51637e-05 0.293794 55.845 1.50217e-07 
223 1 0.285799 0.0357252 0.29362 55.845 1.27561e-07 
224 1 0.285805 0.071411 0.334814 55.845 -4.06281e-08 
225 1 0.321459 0.071436 0.293595 55.845 2.03001e-07 
226 1 0.321488 0.107081 0.334706 55.845 -1.34381e-07 
227 1 0.357139 0.107164 0.293606 55.845 3.69612e-07 
235 1 0.321446 -4.31905e-05 0.293539 55.845 3.55911e-07 
236 1 0.321484 0.0357019 0.334789 55.845 1.12016e-08 
237 1 0.357191 0.0357047 0.293662 55.845 6.49552e-09 
238 1 0.357174 0.0714487 0.334905 55.845 -3.14916e-07 
326 1 0.285745 0.0714067 0.251827 55.845 -2.3804e-07 
328 1 0.321432 0.107186 0.251747 55.845 9.31834e-09 
338 1 0.321494 0.0356846 0.251817 55.845 -1.93895e-07 
340 1 0.357181 0.0714527 0.251541 55.845 -9.12596e-08 
44 1 0.392811 0.0715014 0.459497 55.845 -3.4846e-07 
45 1 0.428602 0.107141 0.459571 55.845 -9.24647e-08 
47 1 0.392908 -8.05049e-05 0.459464 55.845 -1.36608e-07 
48 1 0.428514 0.0357143 0.459447 55.845 -5.62112e-08 
49 1 0.464306 0.0714515 0.459566 55.845 -1.21026e-07 
50 1 0.464293 -4.32746e-05 0.459403 55.845 1.94851e-07 
137 1 0.392933 0.0714658 0.375978 55.845 -1.54528e-07 
138 1 0.392881 0.107089 0.417643 55.845 -3.34565e-07 
139 1 0.428628 0.107151 0.376028 55.845 -1.41339e-07 
144 1 0.392899 6.36372e-05 0.375996 55.845 -1.43348e-07 
145 1 0.392909 0.0357278 0.417537 55.845 -1.44511e-07 
146 1 0.428641 0.035773 0.376048 55.845 -2.08048e-07 
147 1 0.428569 0.0714992 0.417566 55.845 -1.02813e-07 
148 1 0.464321 0.0715351 0.375992 55.845 -1.32953e-08 
149 1 0.464302 0.107166 0.417559 55.845 -8.55745e-08 
150 1 0.428626 1.85581e-05 0.417517 55.845 -1.53127e-07 
151 1 0.464317 -9.35445e-06 0.375875 55.845 1.81071e-07 
152 1 0.464364 0.035737 0.417491 55.845 -2.39835e-07 
239 1 0.392883 0.0715229 0.293744 55.845 -3.2351e-08 
240 1 0.392811 0.107138 0.334917 55.845 5.12968e-08 
241 1 0.428566 0.10713 0.293735 55.845 1.11606e-07 
246 1 0.392898 6.47911e-06 0.293662 55.845 1.65042e-07 
247 1 0.392856 0.0357334 0.33483 55.845 -1.67451e-07 
248 1 0.428552 0.0357549 0.293684 55.845 1.15205e-08 
249 1 0.428571 0.0714898 0.334852 55.845 -9.0368e-08 
250 1 0.464269 0.0714391 0.293742 55.845 1.85341e-08 
251 1 0.464302 0.10726 0.334724 55.845 1.83064e-07 
252 1 0.428577 4.04521e-05 0.334679 55.845 8.81004e-09 
253 1 0.464342 -2.40427e-05 0.293646 55.845 1.95702e-07 
254 1 0.464312 0.0357544 0.334777 55.845 4.41546e-09 
342 1 0.392912 0.107102 0.251706 55.845 1.16152e-07 
349 1 0.392848 0.0357753 0.251849 55.845 -2.41488e-07 
351 1 0.428614 0.0714412 0.251819 55.845 -2.11702e-07 
353 1 0.46432 0.107108 0.251766 55.845 -1.26413e-07 
354 1 0.428604 -1.54606e-05 0.251692 55.845 -4.66692e-07 
356 1 0.464303 0.0356962 0.251794 55.845 -2.74301e-07 
1 1 2.18497e-05 0.178521 0.459421 55.845 1.3503e-07 
2 1 0.0357627 0.214247 0.459447 55.845 -1.33182e-07 
4 1 0.0357673 0.142871 0.459531 55.845 1.3992e-08 
5 1 0.0714413 0.178495 0.459524 55.845 -3.12296e-07 
6 1 0.107103 0.214264 0.459404 55.845 -2.97866e-07 
10 1 0.107186 0.142869 0.45955 55.845 -3.33353e-07 
51 1 5.05843e-05 0.178577 0.375963 55.845 8.39229e-08 
52 1 4.33751e-05 0.214289 0.417525 55.845 -3.62814e-07 
53 1 0.0357802 0.214264 0.376082 55.845 3.79714e-07 
54 1 0.0357417 0.249977 0.417651 55.845 9.11495e-08 
56 1 2.14776e-05 0.142883 0.417553 55.845 -3.83377e-07 
57 1 0.0356955 0.142892 0.375896 55.845 1.38368e-07 
58 1 0.0357737 0.17849 0.417441 55.845 -3.29521e-07 
59 1 0.0714723 0.178593 0.375972 55.845 -6.31465e-09 
60 1 0.0714661 0.21426 0.41758 55.845 -3.93074e-07 
61 1 0.107139 0.21434 0.376028 55.845 1.31409e-07 
62 1 0.10711 0.250016 0.417536 55.845 1.01405e-07 
68 1 0.0713939 0.142788 0.417475 55.845 -8.52366e-08 
69 1 0.107157 0.142826 0.375929 55.845 -3.38568e-07 
70 1 0.107127 0.17857 0.41763 55.845 -2.23346e-07 
153 1 2.007e-05 0.178664 0.293806 55.845 3.21881e-07 
154 1 9.53597e-05 0.214285 0.335006 55.845 -7.05749e-08 
155 1 0.0357811 0.214259 0.293737 55.845 2.36337e-07 
156 1 0.0357074 0.250023 0.334891 55.845 1.12632e-07 
158 1 2.68174e-05 0.142884 0.334839 55.845 2.19439e-07 
159 1 0.0357392 0.142796 0.293727 55.845 4.33335e-07 
160 1 0.0358004 0.178672 0.334999 55.845 -8.00281e-08 
161 1 0.0713734 0.178604 0.293656 55.845 4.85107e-07 
162 1 0.0714058 0.214316 0.334746 55.845 -6.69513e-08 
163 1 0.107191 0.214259 0.29359 55.845 2.75665e-07 
164 1 0.107179 0.250033 0.334725 55.845 -1.44357e-08 
170 1 0.0714389 0.142876 0.334791 55.845 5.11232e-07 
171 1 0.10718 0.142916 0.293734 55.845 2.79042e-07 
172 1 0.107194 0.178593 0.334849 55.845 -1.2686e-07 
256 1 3.03918e-06 0.214289 0.251725 55.845 -2.37712e-07 
258 1 0.0356835 0.250053 0.251726 55.845 1.05446e-09 
260 1 3.12367e-05 0.142844 0.251989 55.845 -2.62049e-07 
262 1 0.0357336 0.17849 0.251754 55.845 1.96384e-07 
264 1 0.0713831 0.214309 0.251695 55.845 1.54709e-07 
266 1 0.107122 0.249995 0.251772 55.845 -9.0327e-08 
272 1 0.0714758 0.142776 0.251817 55.845 -1.19427e-07 
274 1 0.107209 0.178512 0.251764 55.845 1.36135e-07 
11 1 0.142873 0.178598 0.459368 55.845 -2.33341e-07 
12 1 0.178496 0.21427 0.459612 55.845 3.70836e-08 
17 1 0.178623 0.142779 0.459348 55.845 1.20893e-07 
18 1 0.21427 0.178623 0.459488 55.845 2.18907e-07 
19 1 0.250078 0.214228 0.459655 55.845 -1.71225e-07 
24 1 0.250035 0.142859 0.459572 55.845 2.28198e-07 
71 1 0.142858 0.178656 0.375988 55.845 -1.17384e-07 
72 1 0.142872 0.214285 0.417618 55.845 -5.92032e-07 
73 1 0.178577 0.214354 0.376119 55.845 2.34163e-07 
82 1 0.1429 0.14291 0.417512 55.845 -3.41006e-08 
83 1 0.178661 0.142858 0.37605 55.845 -1.81752e-07 
84 1 0.178556 0.178565 0.417469 55.845 -2.29329e-07 
85 1 0.214246 0.178582 0.376099 55.845 1.33472e-07 
86 1 0.21428 0.214276 0.417791 55.845 -4.58183e-07 
87 1 0.250026 0.214314 0.376126 55.845 4.44861e-08 
96 1 0.214281 0.142916 0.417494 55.845 -2.97569e-07 
97 1 0.250014 0.142851 0.376095 55.845 -8.32245e-08 
98 1 0.249939 0.178534 0.417709 55.845 -2.00892e-07 
173 1 0.142875 0.178668 0.293679 55.845 2.27704e-08 
174 1 0.142931 0.214272 0.334748 55.845 -5.17542e-08 
175 1 0.178642 0.214351 0.293687 55.845 1.5796e-07 
184 1 0.142871 0.142865 0.334936 55.845 3.46903e-07 
185 1 0.178624 0.142854 0.293742 55.845 1.67222e-07 
186 1 0.178577 0.178527 0.334822 55.845 -2.76282e-07 
187 1 0.214273 0.178531 0.293613 55.845 7.2039e-09 
188 1 0.214173 0.214255 0.334924 55.845 8.51126e-08 
189 1 0.249875 0.214231 0.293886 55.845 -2.01441e-08 
198 1 0.214354 0.142806 0.334855 55.845 2.50855e-07 
199 1 0.250033 0.142859 0.293634 55.845 2.01871e-07 
200 1 0.250003 0.178448 0.334946 55.845 -5.59345e-08 
276 1 0.142912 0.214288 0.251779 55.845 -9.0652e-08 
286 1 0.142845 0.142919 0.251807 55.845 -2.97068e-07 
288 1 0.178621 0.178588 0.251808 55.845 6.16754e-08 
290 1 0.21425 0.214336 0.251724 55.845 -2.51338e-08 
300 1 0.214339 0.142846 0.251807 55.845 -1.10665e-07 
302 1 0.250055 0.178618 0.251892 55.845 6.6991e-08 
25 1 0.285726 0.17857 0.459514 55.845 -2.17734e-08 
26 1 0.321486 0.214309 0.459504 55.845 -3.19806e-07 
31 1 0.321331 0.142873 0.459552 55.845 2.10076e-08 
32 1 0.357102 0.178645 0.459602 55.845 -3.31085e-08 
99 1 0.285717 0.178486 0.375985 55.845 1.1163e-07 
100 1 0.285786 0.214226 0.417639 55.845 -1.83584e-07 
101 1 0.321416 0.214273 0.375956 55.845 8.7408e-08 
110 1 0.285749 0.14284 0.417552 55.845 -2.32191e-07 
111 1 0.321492 0.142798 0.375966 55.845 -6.64565e-08 
112 1 0.32148 0.178547 0.417684 55.845 1.21376e-08 
113 1 0.357229 0.178579 0.376048 55.845 2.02648e-07 
114 1 0.357173 0.214327 0.417488 55.845 -3.88844e-07 
126 1 0.357109 0.142847 0.417557 55.845 -2.9334e-07 
201 1 0.285732 0.178567 0.293797 55.845 7.11179e-08 
202 1 0.285735 0.214265 0.334768 55.845 8.94524e-08 
203 1 0.321508 0.214209 0.293781 55.845 6.95319e-08 
212 1 0.285711 0.142778 0.334744 55.845 2.69447e-07 
213 1 0.321378 0.142807 0.293666 55.845 4.36783e-07 
214 1 0.321491 0.178526 0.334925 55.845 1.48698e-07 
215 1 0.357189 0.178503 0.293778 55.845 3.29445e-07 