ITEM: TIMESTEP
1800
ITEM: NUMBER OF ATOMS
5880
ITEM: BOX BOUNDS pp pp ff
-27.9289 27.9289
-27.9289 27.9289
0 34.092
ITEM: ATOMS id type xs ys zs mass q 
259 1 3.99962e-05 0.107127 0.209651 55.845 2.09581e-07 
267 1 -2.1445e-06 0.0357408 0.209561 55.845 1.12101e-07 
269 1 0.0357423 0.0713988 0.209686 55.845 1.55385e-07 
271 1 0.0713869 0.107163 0.209651 55.845 -2.16658e-07 
279 1 0.03574 -9.43753e-05 0.209621 55.845 1.25578e-07 
281 1 0.0713961 0.035695 0.209612 55.845 5.86831e-08 
283 1 0.107129 0.0714895 0.209687 55.845 -3.21821e-08 
293 1 0.107174 -2.30876e-05 0.209619 55.845 9.52359e-08 
361 1 -2.99702e-05 0.107123 0.125579 55.845 1.46226e-07 
369 1 -4.86648e-06 0.0357507 0.125515 55.845 5.18954e-08 
370 1 -1.66479e-05 0.0714568 0.167809 55.845 2.65177e-07 
371 1 0.0357312 0.0714483 0.125605 55.845 -7.59343e-09 
372 1 0.0357126 0.107179 0.167906 55.845 1.04092e-07 
373 1 0.0713615 0.107183 0.125583 55.845 -1.92278e-07 
380 1 3.88576e-05 -2.30343e-05 0.167912 55.845 3.47057e-07 
381 1 0.0357067 5.50569e-07 0.125565 55.845 -1.15973e-07 
382 1 0.0357026 0.0356601 0.167833 55.845 5.05262e-08 
383 1 0.0715031 0.0357044 0.125437 55.845 -1.09646e-07 
384 1 0.0714657 0.0714207 0.167831 55.845 4.8919e-08 
385 1 0.107143 0.0713846 0.12547 55.845 -1.39009e-07 
386 1 0.107164 0.107147 0.167954 55.845 1.48804e-07 
394 1 0.0714658 4.65412e-05 0.167855 55.845 3.35276e-07 
395 1 0.107166 -3.60529e-05 0.125668 55.845 2.78181e-09 
396 1 0.107136 0.0357653 0.167904 55.845 2.1321e-07 
463 1 0 0.107143 0.0416667 55.845 -1.68423e-08 
471 1 0 0.0357143 0.0416667 55.845 6.55332e-08 
472 1 -2.96429e-05 0.0714498 0.083168 55.845 -4.01075e-07 
473 1 0.0357143 0.0714286 0.0416667 55.845 1.55241e-07 
474 1 0.0357583 0.107188 0.0831861 55.845 -4.97563e-07 
475 1 0.0714286 0.107143 0.0416667 55.845 2.04212e-07 
482 1 -1.85893e-05 -1.33848e-05 0.0832608 55.845 -2.81615e-07 
483 1 0.0357143 0 0.0416667 55.845 3.07214e-08 
484 1 0.0357629 0.0357024 0.0831574 55.845 -3.97199e-07 
485 1 0.0714286 0.0357143 0.0416667 55.845 -4.77801e-09 
486 1 0.071463 0.0714493 0.0831692 55.845 -4.52505e-07 
487 1 0.107143 0.0714286 0.0416667 55.845 2.60747e-07 
488 1 0.10715 0.107181 0.0832709 55.845 -3.53667e-07 
496 1 0.0714546 -2.00523e-05 0.0831658 55.845 -4.62631e-07 
497 1 0.107143 0 0.0416667 55.845 -6.55798e-08 
498 1 0.107141 0.0357069 0.0832186 55.845 -3.3307e-07 
567 1 0 0.0714286 0 55.845 1.60564e-07 
568 1 0.0357143 0.107143 0 55.845 2.04204e-07 
572 1 0 0 0 55.845 2.97675e-07 
573 1 0.0357143 0.0357143 0 55.845 2.47964e-07 
574 1 0.0714286 0.0714286 0 55.845 3.72769e-07 
575 1 0.107143 0.107143 0 55.845 4.98912e-07 
579 1 0.0714286 0 0 55.845 9.18944e-08 
580 1 0.107143 0.0357143 0 55.845 1.34569e-07 
285 1 0.142864 0.107155 0.209604 55.845 -2.28058e-07 
295 1 0.142767 0.0357239 0.209519 55.845 8.88788e-08 
297 1 0.178556 0.0714109 0.209597 55.845 1.16054e-07 
299 1 0.214269 0.107155 0.209545 55.845 1.11138e-07 
307 1 0.17851 -5.49379e-06 0.209643 55.845 1.07045e-07 
309 1 0.214292 0.0356432 0.209603 55.845 2.51701e-07 
311 1 0.249981 0.0714346 0.209507 55.845 3.01061e-07 
387 1 0.142812 0.107138 0.125451 55.845 -2.68842e-08 
397 1 0.142801 0.0356572 0.12557 55.845 -8.20959e-10 
398 1 0.142806 0.0714592 0.167831 55.845 1.99347e-07 
399 1 0.178574 0.0713995 0.125489 55.845 5.94658e-08 
400 1 0.178519 0.107188 0.167777 55.845 9.44061e-08 
401 1 0.214307 0.107145 0.125572 55.845 5.23473e-08 
408 1 0.142855 -9.69959e-05 0.167852 55.845 3.49759e-07 
409 1 0.17857 -3.33009e-05 0.125552 55.845 -4.59079e-08 
410 1 0.178488 0.0356929 0.167874 55.845 1.20576e-07 
411 1 0.214281 0.035795 0.125385 55.845 1.2279e-07 
412 1 0.214261 0.0714401 0.167982 55.845 1.50962e-07 
413 1 0.250079 0.0714636 0.125576 55.845 3.22727e-08 
414 1 0.250008 0.107216 0.167857 55.845 1.33757e-07 
424 1 0.214244 -2.81452e-05 0.168008 55.845 2.44897e-07 
426 1 0.250004 0.0357281 0.167899 55.845 1.92097e-07 
489 1 0.142857 0.107143 0.0416667 55.845 3.23521e-07 
499 1 0.142857 0.0357143 0.0416667 55.845 -1.00118e-08 
500 1 0.142851 0.071424 0.0832891 55.845 -3.11093e-07 
501 1 0.178571 0.0714286 0.0416667 55.845 1.37858e-07 
502 1 0.178596 0.107176 0.0832307 55.845 -3.1372e-07 
503 1 0.214286 0.107143 0.0416667 55.845 1.20625e-07 
510 1 0.14286 -1.22125e-05 0.0832145 55.845 -4.13864e-07 
511 1 0.178571 0 0.0416667 55.845 -9.52091e-08 
512 1 0.178592 0.0357291 0.083288 55.845 -2.67655e-07 
513 1 0.214286 0.0357143 0.0416667 55.845 -3.02509e-08 
514 1 0.214336 0.0714778 0.0833234 55.845 -3.42651e-07 
515 1 0.25 0.0714286 0.0416667 55.845 1.55548e-07 
516 1 0.250039 0.107194 0.083235 55.845 -5.68297e-07 
526 1 0.214308 -4.31493e-05 0.0833404 55.845 -3.41801e-07 
528 1 0.249997 0.0356399 0.0832057 55.845 -2.65927e-07 
581 1 0.142857 0.0714286 0 55.845 3.51147e-07 
582 1 0.178571 0.107143 0 55.845 3.76544e-07 
586 1 0.142857 0 0 55.845 1.09328e-07 
587 1 0.178571 0.0357143 0 55.845 3.02353e-08 
588 1 0.214286 0.0714286 0 55.845 3.04377e-07 
589 1 0.25 0.107143 0 55.845 1.67249e-07 
594 1 0.214286 0 0 55.845 1.15194e-07 
595 1 0.25 0.0357143 0 55.845 1.75349e-07 
313 1 0.285695 0.107178 0.20961 55.845 1.40303e-07 
323 1 0.250092 -2.87369e-05 0.209658 55.845 1.23871e-07 
325 1 0.285712 0.0357268 0.20953 55.845 2.25252e-07 
327 1 0.321448 0.0713993 0.209551 55.845 2.26956e-07 
329 1 0.357064 0.107176 0.209584 55.845 1.87653e-07 
337 1 0.321381 -1.663e-05 0.209631 55.845 2.17253e-07 
339 1 0.357067 0.0357483 0.209561 55.845 1.50013e-07 
415 1 0.285713 0.107158 0.125527 55.845 7.86685e-08 
425 1 0.250012 -1.27947e-05 0.125723 55.845 4.47574e-08 
427 1 0.285687 0.0357127 0.125553 55.845 5.78641e-08 
428 1 0.28571 0.0714407 0.167901 55.845 2.54989e-07 
429 1 0.321422 0.0714309 0.125499 55.845 4.09543e-08 
430 1 0.321475 0.107127 0.167832 55.845 2.51047e-07 
431 1 0.357138 0.107169 0.125492 55.845 3.72425e-08 
439 1 0.321449 3.53205e-05 0.125617 55.845 3.08286e-08 
440 1 0.321363 0.0357376 0.167913 55.845 4.31934e-07 
441 1 0.357132 0.0356606 0.125709 55.845 9.08599e-08 
442 1 0.357089 0.0714776 0.167728 55.845 2.47448e-07 
517 1 0.285714 0.107143 0.0416667 55.845 -7.76484e-08 
527 1 0.25 0 0.0416667 55.845 -6.59326e-08 
529 1 0.285714 0.0357143 0.0416667 55.845 -6.21568e-08 
530 1 0.285718 0.0714015 0.0833263 55.845 -4.12196e-07 
531 1 0.321429 0.0714286 0.0416667 55.845 -1.93934e-07 
532 1 0.321385 0.107126 0.0831822 55.845 -5.75872e-07 
533 1 0.357143 0.107143 0.0416667 55.845 -5.10174e-09 
603 1 0.357143 0.0714286 0 55.845 -9.1012e-08 
541 1 0.321429 0 0.0416667 55.845 -2.10724e-07 
542 1 0.321426 0.0356848 0.0832878 55.845 -3.65165e-07 
543 1 0.357143 0.0357143 0.0416667 55.845 -3.57167e-08 
544 1 0.357172 0.0713568 0.0831811 55.845 -5.76133e-07 
602 1 0.321429 0.0357143 0 55.845 2.43326e-09 
596 1 0.285714 0.0714286 0 55.845 8.15828e-08 
597 1 0.321429 0.107143 0 55.845 6.68788e-08 
612 1 0.464286 0.0357143 0 55.845 3.44827e-07 
611 1 0.428571 0 0 55.845 4.46549e-07 
610 1 0.464286 0.107143 0 55.845 1.64099e-07 
609 1 0.428571 0.0714286 0 55.845 2.15929e-07 
608 1 0.392857 0.0357143 0 55.845 2.06223e-07 
341 1 0.392779 0.0714395 0.209671 55.845 2.20025e-07 
343 1 0.428509 0.107081 0.20969 55.845 1.32868e-07 
348 1 0.392838 5.71242e-05 0.209614 55.845 1.46575e-07 
350 1 0.428594 0.0357282 0.209667 55.845 -9.67033e-09 
352 1 0.464329 0.0714112 0.209643 55.845 1.1689e-07 
355 1 0.464246 2.30368e-06 0.209669 55.845 1.73567e-07 
443 1 0.39285 0.0714085 0.125557 55.845 -9.18056e-08 
444 1 0.392827 0.107203 0.1679 55.845 3.40053e-07 
445 1 0.428551 0.107092 0.125623 55.845 7.7544e-08 
604 1 0.392857 0.107143 0 55.845 4.50596e-08 
450 1 0.392839 1.76894e-05 0.125504 55.845 3.50437e-09 
451 1 0.392892 0.0356776 0.167883 55.845 3.04803e-07 
452 1 0.42854 0.0357481 0.12552 55.845 4.48024e-08 
453 1 0.428509 0.0714085 0.168046 55.845 1.80359e-07 
454 1 0.464272 0.07143 0.125668 55.845 1.27303e-07 
455 1 0.464314 0.107106 0.167983 55.845 1.71857e-07 
456 1 0.428557 3.70164e-05 0.167846 55.845 2.73879e-07 
457 1 0.464248 -1.97063e-05 0.125531 55.845 -1.0326e-07 
458 1 0.464313 0.0356925 0.167848 55.845 -1.09533e-08 
545 1 0.392857 0.0714286 0.0416667 55.845 -1.35685e-07 
546 1 0.392856 0.107116 0.0832439 55.845 -5.41647e-07 
547 1 0.428571 0.107143 0.0416667 55.845 -4.00219e-08 
552 1 0.392857 0 0.0416667 55.845 1.02569e-07 
553 1 0.392845 0.0356801 0.083219 55.845 -2.88834e-07 
554 1 0.428571 0.0357143 0.0416667 55.845 6.80887e-08 
555 1 0.428566 0.0714 0.0832021 55.845 -5.78396e-07 
556 1 0.464286 0.0714286 0.0416667 55.845 1.26674e-07 
557 1 0.464281 0.107146 0.0833077 55.845 -2.99799e-07 
558 1 0.42852 3.94014e-05 0.0833022 55.845 -2.26256e-07 
559 1 0.464286 0 0.0416667 55.845 2.10199e-07 
560 1 0.464253 0.0356865 0.0832592 55.845 -2.55953e-07 
255 1 -5.50537e-05 0.178564 0.209612 55.845 2.13933e-07 
257 1 0.0356821 0.21428 0.209526 55.845 1.05493e-07 
261 1 0.0357339 0.142873 0.209689 55.845 1.11592e-07 
263 1 0.0713656 0.178606 0.209633 55.845 5.28593e-08 
265 1 0.107148 0.214295 0.209668 55.845 6.25656e-08 
273 1 0.10705 0.142864 0.209608 55.845 -1.07282e-07 
357 1 -8.91127e-05 0.178649 0.125484 55.845 1.41775e-07 
358 1 -3.76156e-05 0.2143 0.167847 55.845 3.21657e-07 
359 1 0.0357422 0.214333 0.125626 55.845 1.3818e-07 
360 1 0.0357783 0.249969 0.167895 55.845 1.88117e-07 
362 1 -4.98622e-07 0.142851 0.167809 55.845 3.07658e-07 
363 1 0.0356617 0.14286 0.125532 55.845 1.24963e-08 
364 1 0.035654 0.178575 0.167785 55.845 1.52246e-07 
365 1 0.0713961 0.178638 0.125555 55.845 -7.37899e-08 
366 1 0.0714285 0.214267 0.167907 55.845 3.86069e-07 
367 1 0.107111 0.214252 0.125542 55.845 -7.5251e-08 
368 1 0.107025 0.250086 0.167734 55.845 1.92988e-07 
374 1 0.0713711 0.142911 0.167904 55.845 1.29717e-07 
375 1 0.107119 0.142918 0.125614 55.845 -3.40868e-07 
376 1 0.107125 0.178626 0.167956 55.845 2.28877e-07 
459 1 0 0.178571 0.0416667 55.845 -1.8681e-07 
460 1 -1.9916e-06 0.214279 0.083168 55.845 -4.03106e-07 
461 1 0.0357143 0.214286 0.0416667 55.845 7.87903e-08 
462 1 0.0357031 0.249974 0.0832775 55.845 -2.22715e-07 
464 1 -1.0206e-05 0.142828 0.0832371 55.845 -4.66658e-07 
465 1 0.0357143 0.142857 0.0416667 55.845 -7.57998e-08 
466 1 0.0356981 0.178567 0.0832702 55.845 -2.38701e-07 
467 1 0.0714286 0.178571 0.0416667 55.845 1.05854e-07 
468 1 0.0713727 0.214235 0.0831789 55.845 -2.60657e-07 
469 1 0.107143 0.214286 0.0416667 55.845 4.66515e-08 
470 1 0.107187 0.249975 0.0833127 55.845 -4.42786e-07 
476 1 0.0713964 0.142882 0.0832129 55.845 -2.89624e-07 
477 1 0.107143 0.142857 0.0416667 55.845 1.93935e-07 
478 1 0.107096 0.178646 0.0832405 55.845 -2.89179e-07 
561 1 0 0.214286 0 55.845 5.74731e-08 
562 1 0.0357143 0.25 0 55.845 3.12875e-08 
563 1 0 0.142857 0 55.845 -1.01928e-07 
564 1 0.0357143 0.178571 0 55.845 7.24614e-08 
565 1 0.0714286 0.214286 0 55.845 1.54943e-07 
566 1 0.107143 0.25 0 55.845 1.77257e-07 
569 1 0.0714286 0.142857 0 55.845 2.43021e-07 
570 1 0.107143 0.178571 0 55.845 3.30014e-07 
275 1 0.142813 0.178564 0.20969 55.845 1.63832e-07 
277 1 0.178584 0.214335 0.209577 55.845 2.42795e-07 
287 1 0.178609 0.142885 0.209591 55.845 7.6149e-08 
289 1 0.214303 0.178603 0.209642 55.845 3.00344e-07 
291 1 0.249969 0.214318 0.209598 55.845 1.65985e-07 
301 1 0.250006 0.142887 0.209718 55.845 2.52468e-07 
377 1 0.142818 0.178558 0.12556 55.845 -9.468e-08 
378 1 0.142842 0.214322 0.167873 55.845 2.20281e-07 
379 1 0.17854 0.214297 0.125505 55.845 6.06512e-08 
388 1 0.142908 0.142946 0.167929 55.845 2.72476e-07 
389 1 0.178567 0.142913 0.125549 55.845 -1.05326e-07 
390 1 0.178584 0.178606 0.167974 55.845 9.39999e-08 
391 1 0.214247 0.178525 0.125518 55.845 3.72953e-08 
392 1 0.214344 0.214341 0.167717 55.845 2.37773e-07 
393 1 0.249988 0.214257 0.125511 55.845 -3.71869e-09 
402 1 0.214264 0.142885 0.167781 55.845 1.66772e-07 
403 1 0.250019 0.142894 0.125558 55.845 -1.89952e-07 
404 1 0.250047 0.178585 0.167887 55.845 2.04022e-07 
479 1 0.142857 0.178571 0.0416667 55.845 2.26479e-08 
480 1 0.14287 0.214278 0.0831546 55.845 -5.18468e-07 
481 1 0.178571 0.214286 0.0416667 55.845 9.49319e-08 
490 1 0.142874 0.142873 0.0831822 55.845 -2.66777e-07 
491 1 0.178571 0.142857 0.0416667 55.845 1.30081e-07 
492 1 0.178574 0.178557 0.0832297 55.845 -2.80766e-07 
493 1 0.214286 0.178571 0.0416667 55.845 3.87526e-08 
494 1 0.21431 0.214292 0.0832363 55.845 -4.80274e-07 
495 1 0.25 0.214286 0.0416667 55.845 1.98424e-07 
504 1 0.214248 0.142899 0.083214 55.845 -4.04871e-07 
505 1 0.25 0.142857 0.0416667 55.845 -1.63638e-09 
506 1 0.249965 0.178578 0.0831711 55.845 -3.55861e-07 
571 1 0.142857 0.214286 0 55.845 2.81012e-07 
576 1 0.142857 0.142857 0 55.845 4.55808e-07 
577 1 0.178571 0.178571 0 55.845 3.9849e-07 
578 1 0.214286 0.214286 0 55.845 3.87057e-07 
583 1 0.214286 0.142857 0 55.845 4.99643e-07 
584 1 0.25 0.178571 0 55.845 2.48148e-07 
303 1 0.28571 0.178571 0.209546 55.845 2.31783e-07 
305 1 0.32144 0.214216 0.2095 55.845 7.96121e-08 
315 1 0.321412 0.142905 0.209548 55.845 1.32771e-07 
317 1 0.357142 0.178603 0.209616 55.845 1.92416e-07 
405 1 0.285686 0.178587 0.125504 55.845 -1.70951e-07 
406 1 0.285694 0.214283 0.167826 55.845 2.8943e-07 
407 1 0.321408 0.214262 0.125603 55.845 -7.94402e-08 
416 1 0.285725 0.142892 0.167953 55.845 2.57133e-07 
417 1 0.321468 0.14285 0.125486 55.845 -4.23796e-08 
418 1 0.321483 0.178526 0.167828 55.845 3.09439e-07 
419 1 0.357195 0.178549 0.125591 55.845 7.72212e-08 
420 1 0.357179 0.214248 0.16786 55.845 1.71623e-07 
432 1 0.357216 0.142887 0.167844 55.845 3.12983e-07 
507 1 0.285714 0.178571 0.0416667 55.845 -4.65964e-08 
508 1 0.28562 0.214307 0.0832408 55.845 -3.43043e-07 
509 1 0.321429 0.214286 0.0416667 55.845 1.04446e-07 
518 1 0.28571 0.142885 0.0832202 55.845 -5.30295e-07 
519 1 0.321429 0.142857 0.0416667 55.845 -3.2326e-08 
520 1 0.321422 0.178556 0.0832034 55.845 -2.64329e-07 
521 1 0.357143 0.178571 0.0416667 55.845 1.58392e-07 
522 1 0.357153 0.214271 0.0832364 55.845 -4.18625e-07 
534 1 0.357157 0.142917 0.0831685 55.845 -2.63057e-07 
585 1 0.285714 0.214286 0 55.845 2.55267e-07 
590 1 0.285714 0.142857 0 55.845 1.99831e-07 
591 1 0.321429 0.178571 0 55.845 3.14134e-07 
592 1 0.357143 0.214286 0 55.845 1.56625e-07 
598 1 0.357143 0.142857 0 55.845 2.02627e-07 
319 1 0.392805 0.214306 0.209607 55.845 2.94705e-08 
321 1 0.428534 0.250006 0.209625 55.845 3.10726e-08 
331 1 0.392923 0.14288 0.209569 55.845 2.50893e-07 
333 1 0.428577 0.178553 0.20963 55.845 1.92219e-08 
335 1 0.464307 0.21432 0.209668 55.845 8.89501e-09 
345 1 0.464329 0.142889 0.209465 55.845 1.64497e-07 
606 1 0.464286 0.178571 0 55.845 -1.34801e-08 
421 1 0.392907 0.214327 0.125542 55.845 -5.83452e-09 
422 1 0.392854 0.25005 0.167992 55.845 5.74552e-08 
423 1 0.428558 0.249941 0.125601 55.845 4.79058e-08 
433 1 0.392906 0.142867 0.125548 55.845 1.10809e-07 
434 1 0.392878 0.178593 0.167927 55.845 2.44593e-07 
435 1 0.428542 0.178564 0.125652 55.845 1.31358e-07 
436 1 0.428599 0.214269 0.167968 55.845 5.7037e-08 
437 1 0.46428 0.214275 0.125618 55.845 7.58713e-08 
605 1 0.428571 0.142857 0 55.845 2.19669e-07 
446 1 0.428634 0.142869 0.167825 55.845 2.42032e-07 
447 1 0.464265 0.142817 0.125469 55.845 2.46746e-07 
448 1 0.464321 0.178633 0.167868 55.845 1.16672e-07 
523 1 0.392857 0.214286 0.0416667 55.845 8.5576e-08 
524 1 0.392853 0.249994 0.0832858 55.845 -2.95539e-07 
525 1 0.428571 0.25 0.0416667 55.845 4.10381e-08 
535 1 0.392857 0.142857 0.0416667 55.845 2.07642e-08 
536 1 0.392876 0.178551 0.0832676 55.845 -3.2448e-07 
537 1 0.428571 0.178571 0.0416667 55.845 -8.12889e-08 
538 1 0.428572 0.214265 0.0831945 55.845 -5.94458e-07 
539 1 0.464286 0.214286 0.0416667 55.845 -9.03263e-08 
548 1 0.428626 0.142772 0.0832039 55.845 -3.20269e-07 
549 1 0.464286 0.142857 0.0416667 55.845 -6.47874e-08 
550 1 0.464294 0.178564 0.0832026 55.845 -2.74928e-07 
593 1 0.392857 0.25 0 55.845 1.27178e-07 
599 1 0.392857 0.178571 0 55.845 2.1918e-07 
600 1 0.428571 0.214286 0 55.845 -1.15458e-08 
3 1 3.22953e-05 0.107111 0.461102 55.845 1.2921e-07 
7 1 6.83383e-06 0.0357232 0.461037 55.845 3.43796e-09 
8 1 0.03578 0.071438 0.461112 55.845 2.8804e-08 
9 1 0.0715097 0.107247 0.461109 55.845 -2.40721e-10 
13 1 0.0357126 7.95952e-06 0.461173 55.845 2.17078e-08 
14 1 0.0714727 0.0357208 0.461061 55.845 2.45051e-08 
15 1 0.107174 0.0713985 0.461171 55.845 -5.26628e-08 
20 1 0.107205 3.11114e-05 0.461168 55.845 1.7233e-07 
55 1 1.33754e-05 0.107047 0.376875 55.845 4.71874e-07 
63 1 -2.48763e-05 0.0356951 0.376951 55.845 5.1527e-07 
64 1 9.16484e-05 0.0714339 0.418935 55.845 -5.75188e-07 
65 1 0.0357988 0.0713896 0.377012 55.845 4.98143e-07 
66 1 0.0357119 0.107171 0.418934 55.845 -5.29475e-07 
67 1 0.0714449 0.107142 0.376905 55.845 4.88971e-07 
74 1 5.28434e-06 3.2291e-05 0.4188 55.845 -5.95633e-07 
75 1 0.0357121 -5.50469e-05 0.376961 55.845 5.69765e-07 
76 1 0.0357264 0.0357129 0.418939 55.845 -5.18333e-07 
77 1 0.0714283 0.0357038 0.376964 55.845 3.97989e-07 
78 1 0.0714678 0.0714402 0.418871 55.845 -3.82955e-07 
79 1 0.107158 0.071437 0.376992 55.845 4.92705e-07 
80 1 0.107137 0.107064 0.418958 55.845 -3.28477e-07 
88 1 0.0714524 -2.26844e-05 0.41893 55.845 -4.80762e-07 
89 1 0.107165 1.58936e-05 0.377059 55.845 5.06069e-07 
90 1 0.107176 0.0357219 0.418982 55.845 -3.54056e-07 
157 1 3.95252e-05 0.107139 0.293406 55.845 -9.95628e-08 
165 1 0.000111653 0.0357082 0.293236 55.845 -1.13702e-07 
166 1 9.83346e-05 0.0712931 0.335332 55.845 -4.06662e-08 
167 1 0.0357481 0.0713923 0.293294 55.845 -2.6454e-07 
168 1 0.0357207 0.107044 0.33531 55.845 -6.01802e-08 
169 1 0.0713767 0.107093 0.293236 55.845 -1.02842e-07 
176 1 1.74662e-05 -5.21388e-05 0.335268 55.845 7.52771e-08 
177 1 0.0358283 -3.84959e-05 0.293223 55.845 -2.17373e-07 
178 1 0.0357495 0.0356577 0.335379 55.845 1.13852e-07 
179 1 0.0713677 0.0357248 0.293257 55.845 1.54468e-09 
180 1 0.0714505 0.0713956 0.335258 55.845 5.10732e-08 
181 1 0.107078 0.0713966 0.293291 55.845 -1.94297e-07 
182 1 0.107084 0.10711 0.33528 55.845 2.02691e-07 
190 1 0.0714695 5.75261e-06 0.335501 55.845 3.86307e-08 
191 1 0.107121 -3.40935e-06 0.293195 55.845 -1.82342e-07 
192 1 0.10712 0.0357088 0.335353 55.845 1.31141e-07 
268 1 4.77862e-05 0.0714621 0.251311 55.845 -2.32486e-07 
270 1 0.0357139 0.107146 0.251367 55.845 -1.71837e-07 
278 1 6.60919e-05 -1.5639e-05 0.251221 55.845 -2.81993e-07 
280 1 0.0357165 0.0355967 0.25134 55.845 -1.07565e-07 
282 1 0.071424 0.0713757 0.251195 55.845 -1.61954e-07 
284 1 0.107145 0.107139 0.251289 55.845 -2.43284e-07 
292 1 0.07142 1.50506e-06 0.251293 55.845 -2.07171e-07 
294 1 0.107074 0.0357419 0.251292 55.845 -2.31182e-07 
16 1 0.142881 0.10717 0.461145 55.845 -1.39254e-08 
21 1 0.142879 0.035687 0.461076 55.845 3.11169e-08 
22 1 0.178548 0.0714194 0.460939 55.845 -5.42949e-08 
23 1 0.214318 0.107054 0.461156 55.845 1.59505e-07 
27 1 0.178518 2.26748e-05 0.461042 55.845 6.9004e-08 
28 1 0.214212 0.0357623 0.461092 55.845 9.30537e-08 
29 1 0.249962 0.07143 0.461119 55.845 3.6291e-08 
81 1 0.142837 0.107163 0.377009 55.845 6.07233e-07 
91 1 0.142815 0.035783 0.376867 55.845 5.40784e-07 
92 1 0.142854 0.0714181 0.418896 55.845 -4.35501e-07 
93 1 0.178604 0.071422 0.376872 55.845 5.60963e-07 
94 1 0.17854 0.107154 0.418911 55.845 -2.63971e-07 
95 1 0.214223 0.107139 0.376875 55.845 7.09766e-07 
102 1 0.142875 4.91958e-05 0.418899 55.845 -5.39984e-07 
103 1 0.178516 0.000113486 0.376844 55.845 4.77039e-07 
104 1 0.178503 0.0357608 0.41885 55.845 -4.94023e-07 
105 1 0.214332 0.0357576 0.376866 55.845 5.3334e-07 
106 1 0.21427 0.071445 0.418895 55.845 -4.73124e-07 
107 1 0.249936 0.0714633 0.376826 55.845 5.10379e-07 
108 1 0.249949 0.107154 0.418876 55.845 -4.69075e-07 
118 1 0.214248 9.14613e-05 0.418898 55.845 -5.54655e-07 
120 1 0.250004 0.0357486 0.418912 55.845 -5.8555e-07 
183 1 0.142845 0.10709 0.293255 55.845 -1.18152e-07 
193 1 0.142802 0.0357466 0.293221 55.845 -7.88356e-08 
194 1 0.14282 0.0715102 0.335344 55.845 8.43838e-08 
195 1 0.178523 0.0713982 0.293228 55.845 -1.03223e-07 
196 1 0.178525 0.10718 0.335289 55.845 -5.77851e-08 
197 1 0.214263 0.107152 0.293284 55.845 -9.4652e-08 
204 1 0.142859 4.04619e-05 0.335237 55.845 4.91579e-08 
205 1 0.178581 1.78544e-05 0.293275 55.845 -1.65476e-07 
206 1 0.178539 0.0357811 0.335259 55.845 -1.55015e-08 
207 1 0.214301 0.0356985 0.293279 55.845 -1.24651e-07 
208 1 0.214222 0.071451 0.335243 55.845 8.21262e-08 
209 1 0.249994 0.0714718 0.293255 55.845 -1.71408e-07 
210 1 0.249944 0.107174 0.335289 55.845 -3.63873e-08 
220 1 0.214302 1.36188e-05 0.335349 55.845 -1.69522e-08 
222 1 0.249924 0.0357013 0.335163 55.845 -2.59238e-07 
296 1 0.142778 0.0714495 0.251323 55.845 -2.60176e-07 
298 1 0.178504 0.107161 0.251303 55.845 -2.36446e-07 
306 1 0.142835 1.14485e-06 0.251237 55.845 -3.64674e-07 
308 1 0.178567 0.0357478 0.251328 55.845 -2.44508e-07 
310 1 0.214241 0.0714618 0.251344 55.845 -4.21064e-07 
312 1 0.249961 0.107121 0.251236 55.845 -1.95078e-07 
322 1 0.214269 2.28654e-05 0.251351 55.845 -4.16806e-07 
324 1 0.250049 0.0357539 0.251301 55.845 -3.8471e-07 
30 1 0.285685 0.10723 0.461001 55.845 -2.82261e-08 
35 1 0.249965 4.98762e-05 0.461074 55.845 3.56082e-08 
36 1 0.285624 0.0357008 0.461093 55.845 9.61017e-08 
37 1 0.321432 0.0714891 0.461071 55.845 -1.7451e-07 
38 1 0.357079 0.107127 0.460987 55.845 1.04171e-07 
42 1 0.321435 -2.07855e-05 0.461163 55.845 4.9028e-08 
43 1 0.357078 0.0357647 0.460999 55.845 6.11078e-08 
109 1 0.285719 0.107147 0.376879 55.845 4.01331e-07 
119 1 0.249961 3.21643e-05 0.37702 55.845 5.48096e-07 
121 1 0.28563 0.0357814 0.376841 55.845 3.9521e-07 
122 1 0.285682 0.0714459 0.41894 55.845 -6.0662e-07 
123 1 0.321371 0.071469 0.376807 55.845 2.5183e-07 
124 1 0.321372 0.107145 0.418839 55.845 -5.60509e-07 
125 1 0.357049 0.107157 0.37696 55.845 3.32499e-07 
133 1 0.321464 4.49847e-05 0.376945 55.845 3.74806e-07 
134 1 0.321338 0.0357946 0.418908 55.845 -6.18436e-07 
135 1 0.357097 0.0356782 0.376824 55.845 2.9079e-07 
136 1 0.357132 0.0714083 0.418789 55.845 -6.905e-07 
211 1 0.285673 0.107136 0.293246 55.845 -8.52203e-08 
221 1 0.250042 -1.51684e-05 0.293207 55.845 -2.29803e-07 
223 1 0.285725 0.035686 0.293233 55.845 -1.45395e-07 
224 1 0.28564 0.0714011 0.33529 55.845 -1.32569e-07 
225 1 0.321357 0.0714465 0.29318 55.845 -2.3226e-07 
226 1 0.321352 0.107162 0.335331 55.845 -1.3458e-07 
227 1 0.357017 0.107157 0.293264 55.845 -2.31046e-07 
235 1 0.321452 4.3326e-05 0.293343 55.845 -1.91664e-07 
236 1 0.321383 0.0357318 0.335343 55.845 -1.96774e-07 
237 1 0.357094 0.0357864 0.293193 55.845 -1.48869e-07 
238 1 0.357084 0.0713839 0.335315 55.845 -1.74044e-08 
326 1 0.285695 0.0714877 0.251228 55.845 -2.61513e-07 
328 1 0.321455 0.107217 0.251221 55.845 -1.15646e-07 
338 1 0.321412 0.0357524 0.251338 55.845 -5.48471e-08 
340 1 0.357081 0.0715069 0.251192 55.845 -2.4564e-09 
44 1 0.39274 0.0714357 0.461105 55.845 -1.38326e-07 
45 1 0.428486 0.107168 0.460913 55.845 5.8992e-08 
47 1 0.392811 -3.39048e-06 0.461048 55.845 6.33223e-08 
48 1 0.428561 0.0357455 0.461091 55.845 8.30691e-08 
49 1 0.464268 0.0713897 0.460999 55.845 -2.98018e-08 
50 1 0.46424 2.52157e-05 0.460992 55.845 9.50869e-08 
137 1 0.39284 0.0714239 0.376947 55.845 5.88386e-07 
138 1 0.392807 0.107216 0.418885 55.845 -4.42178e-07 
139 1 0.4285 0.107185 0.376868 55.845 4.93755e-07 
144 1 0.392842 1.85456e-05 0.376911 55.845 3.60987e-07 
145 1 0.392776 0.0357244 0.418817 55.845 -5.96493e-07 
146 1 0.428615 0.0358443 0.37702 55.845 4.78248e-07 
147 1 0.428528 0.0714608 0.418934 55.845 -5.14027e-07 
148 1 0.464186 0.0714474 0.377006 55.845 5.79721e-07 
149 1 0.464237 0.107098 0.41884 55.845 -4.47463e-07 
150 1 0.428513 2.71013e-05 0.419 55.845 -3.89771e-07 
151 1 0.464267 7.03371e-05 0.376865 55.845 5.49641e-07 
152 1 0.464307 0.035692 0.418879 55.845 -3.85748e-07 
239 1 0.392792 0.0715209 0.293261 55.845 -1.41223e-07 
240 1 0.392818 0.107167 0.335249 55.845 5.86697e-08 
241 1 0.428546 0.107189 0.293164 55.845 -1.05737e-07 
246 1 0.392849 -2.30932e-07 0.293242 55.845 -1.97846e-07 
247 1 0.392863 0.0356947 0.335205 55.845 -2.63855e-08 
248 1 0.428524 0.0357363 0.293168 55.845 -1.04388e-07 
249 1 0.428569 0.0714579 0.335278 55.845 -7.08496e-08 
250 1 0.464312 0.0714915 0.293306 55.845 -1.86356e-07 
251 1 0.464253 0.107138 0.335257 55.845 4.23762e-08 
252 1 0.428532 0.000102247 0.33539 55.845 -2.22345e-07 
253 1 0.464261 6.16293e-05 0.293267 55.845 -1.72468e-07 
254 1 0.464295 0.0357213 0.335164 55.845 -3.27755e-08 
342 1 0.392791 0.107193 0.251225 55.845 -9.55783e-08 
349 1 0.392772 0.0357263 0.25127 55.845 -3.37191e-07 
351 1 0.428508 0.0714499 0.251263 55.845 -1.08527e-07 
353 1 0.464277 0.107115 0.251247 55.845 -3.36343e-07 
354 1 0.428578 4.89535e-05 0.251259 55.845 -5.19018e-07 
356 1 0.464375 0.0357431 0.251222 55.845 -3.2323e-07 
1 1 2.12396e-05 0.17858 0.461197 55.845 3.56105e-08 
2 1 0.0356774 0.214353 0.461099 55.845 6.16736e-08 
4 1 0.0357314 0.142865 0.461167 55.845 -7.28546e-08 
5 1 0.0714931 0.178592 0.461099 55.845 1.36432e-08 
6 1 0.107126 0.214355 0.461049 55.845 3.54052e-08 
10 1 0.107137 0.142858 0.461022 55.845 1.3664e-07 
51 1 2.86043e-05 0.178558 0.376938 55.845 3.8151e-07 
52 1 -1.82644e-05 0.214332 0.418882 55.845 -5.45586e-07 
53 1 0.0357361 0.214334 0.376892 55.845 4.65303e-07 
54 1 0.0357098 0.250062 0.418882 55.845 -4.97094e-07 
56 1 2.16495e-05 0.142845 0.418899 55.845 -7.38569e-07 
57 1 0.0356862 0.14283 0.376878 55.845 4.74894e-07 
58 1 0.0356742 0.178598 0.418985 55.845 -6.01578e-07 
59 1 0.0714364 0.178522 0.37687 55.845 4.10414e-07 
60 1 0.0714235 0.214258 0.418895 55.845 -4.60383e-07 
61 1 0.107161 0.214241 0.376921 55.845 4.81156e-07 
62 1 0.107112 0.250024 0.418825 55.845 -5.99202e-07 
68 1 0.0714145 0.142832 0.418914 55.845 -2.9791e-07 
69 1 0.107124 0.142848 0.37696 55.845 5.55864e-07 
70 1 0.107131 0.17856 0.418847 55.845 -1.7404e-07 
153 1 -2.95815e-05 0.17862 0.293193 55.845 4.86457e-08 
154 1 1.68327e-05 0.214328 0.335289 55.845 -1.14967e-07 
155 1 0.0356749 0.214297 0.293289 55.845 -2.50024e-07 
156 1 0.0357487 0.25003 0.335309 55.845 2.30564e-08 
158 1 1.42751e-05 0.142884 0.335363 55.845 -1.43423e-07 
159 1 0.0357558 0.142863 0.29325 55.845 -2.3074e-07 
160 1 0.0356898 0.178588 0.335203 55.845 -6.32625e-08 
161 1 0.0714268 0.178594 0.293312 55.845 -1.35871e-07 
162 1 0.0714146 0.214268 0.335344 55.845 -4.22479e-08 
163 1 0.107153 0.214276 0.293359 55.845 -2.60972e-07 
164 1 0.107201 0.250021 0.335349 55.845 -8.75442e-08 
170 1 0.0714951 0.142848 0.335284 55.845 2.43866e-08 
171 1 0.107142 0.142821 0.29318 55.845 -1.39863e-07 
172 1 0.107114 0.178536 0.335205 55.845 1.64707e-07 
256 1 -1.71037e-05 0.214312 0.251359 55.845 -3.87346e-07 
258 1 0.035715 0.250052 0.251237 55.845 -8.81802e-08 
260 1 -1.56194e-05 0.142817 0.25123 55.845 -1.672e-07 
262 1 0.0357386 0.178618 0.251119 55.845 -1.99274e-07 
264 1 0.0714747 0.214346 0.251473 55.845 -1.86051e-07 
266 1 0.107109 0.249974 0.251335 55.845 -9.42108e-08 
272 1 0.0714211 0.142923 0.251307 55.845 -1.01875e-07 
274 1 0.107069 0.178563 0.251358 55.845 -1.18765e-07 
11 1 0.142843 0.178634 0.461014 55.845 6.17384e-08 
12 1 0.178567 0.214209 0.460954 55.845 2.73038e-07 
17 1 0.178561 0.142912 0.461216 55.845 1.33178e-07 
18 1 0.214322 0.178559 0.461107 55.845 7.13217e-08 
19 1 0.24994 0.214277 0.461139 55.845 1.0398e-07 
24 1 0.249982 0.142843 0.461061 55.845 -3.68165e-09 
71 1 0.142829 0.178562 0.377005 55.845 5.41536e-07 
72 1 0.142782 0.214272 0.418822 55.845 -5.47314e-07 
73 1 0.178503 0.214242 0.376937 55.845 1.83016e-07 
82 1 0.142864 0.142843 0.419018 55.845 -1.3347e-07 
83 1 0.178542 0.142788 0.376866 55.845 4.17271e-07 
84 1 0.178558 0.178558 0.418797 55.845 -2.73446e-07 
85 1 0.214294 0.178599 0.376881 55.845 3.45018e-07 
86 1 0.214243 0.214253 0.418739 55.845 -5.34113e-07 
87 1 0.250004 0.214277 0.376791 55.845 4.26345e-07 
96 1 0.214243 0.142839 0.418901 55.845 -4.51399e-07 
97 1 0.249951 0.142847 0.376976 55.845 5.02535e-07 
98 1 0.249902 0.178519 0.418877 55.845 -3.46212e-07 
173 1 0.1428 0.178555 0.293268 55.845 -2.5241e-07 
174 1 0.142817 0.214282 0.335295 55.845 -7.81712e-08 
175 1 0.178532 0.214307 0.293177 55.845 -1.6911e-07 
184 1 0.142745 0.14285 0.33525 55.845 -1.17672e-07 
185 1 0.178567 0.142944 0.293155 55.845 -2.37808e-07 
186 1 0.178576 0.178594 0.335319 55.845 -2.37076e-07 
187 1 0.214293 0.178632 0.293203 55.845 -1.82327e-07 
188 1 0.214208 0.214309 0.33523 55.845 -1.34619e-07 
189 1 0.249985 0.214312 0.293186 55.845 -2.97664e-07 
198 1 0.214319 0.142904 0.33535 55.845 -1.07812e-07 
199 1 0.250025 0.142851 0.293246 55.845 -4.75386e-08 
200 1 0.250012 0.178537 0.335357 55.845 -1.57054e-07 
276 1 0.142823 0.214299 0.251202 55.845 -3.16889e-07 
286 1 0.142805 0.142807 0.251265 55.845 -3.08459e-07 
288 1 0.178547 0.178591 0.251309 55.845 -2.51059e-07 
290 1 0.214275 0.214249 0.251276 55.845 -2.52601e-07 
300 1 0.214316 0.142865 0.251209 55.845 -3.33409e-07 
302 1 0.249994 0.178611 0.251202 55.845 -1.56694e-07 
25 1 0.285639 0.178593 0.461026 55.845 1.06802e-07 
26 1 0.321422 0.214321 0.460995 55.845 5.31443e-08 
31 1 0.32136 0.142862 0.461039 55.845 -7.1967e-08 
32 1 0.357073 0.178601 0.461015 55.845 3.28116e-08 
99 1 0.285655 0.17861 0.376921 55.845 9.52161e-08 
100 1 0.285634 0.214275 0.418836 55.845 -4.83486e-07 
101 1 0.321419 0.214325 0.376917 55.845 3.19651e-07 
110 1 0.285672 0.142874 0.418809 55.845 -5.07988e-07 
111 1 0.3213 0.142847 0.376826 55.845 2.90722e-07 
112 1 0.321451 0.178609 0.418888 55.845 -5.33676e-07 
113 1 0.357107 0.178544 0.376858 55.845 4.22415e-07 
114 1 0.357174 0.214338 0.418762 55.845 -3.83788e-07 
126 1 0.357068 0.142888 0.418933 55.845 -4.23002e-07 
201 1 0.285668 0.178562 0.293279 55.845 -1.44175e-07 
202 1 0.28567 0.214361 0.335266 55.845 -2.3033e-08 
203 1 0.321389 0.214318 0.293199 55.845 -2.0124e-07 
212 1 0.285629 0.142887 0.335245 55.845 -1.24187e-07 
213 1 0.321429 0.142942 0.293267 55.845 -2.14073e-07 
214 1 0.32142 0.178658 0.335266 55.845 -1.38011e-07 
215 1 0.357176 0.178602 0.293364 55.845 -1.55325e-07 