ITEM: TIMESTEP
5200
ITEM: NUMBER OF ATOMS
5880
ITEM: BOX BOUNDS pp pp ff
-27.9291 27.9291
-27.9291 27.9291
0 34.092
ITEM: ATOMS id type xs ys zs mass q 
259 1 -1.3874e-05 0.107168 0.210739 55.845 4.6821e-07 
267 1 5.52853e-05 0.0357065 0.210832 55.845 4.30946e-07 
269 1 0.0357414 0.0713611 0.210843 55.845 4.33922e-07 
271 1 0.0714523 0.107239 0.210861 55.845 4.87529e-07 
279 1 0.0357415 1.49523e-05 0.210914 55.845 3.08701e-07 
281 1 0.0714245 0.0357505 0.210818 55.845 2.63117e-07 
283 1 0.107093 0.0713834 0.210924 55.845 3.15495e-07 
293 1 0.107179 3.22068e-05 0.210855 55.845 3.69643e-07 
361 1 2.51827e-05 0.107118 0.12716 55.845 2.33813e-07 
369 1 1.17532e-06 0.0356283 0.127193 55.845 1.26547e-07 
370 1 6.35401e-05 0.071422 0.168771 55.845 -3.50736e-07 
371 1 0.0357018 0.0714576 0.127031 55.845 1.66753e-07 
372 1 0.0357492 0.107126 0.168673 55.845 -2.25968e-07 
373 1 0.071473 0.107233 0.127049 55.845 -8.02669e-08 
380 1 -6.40071e-05 4.65412e-07 0.168769 55.845 -2.94535e-07 
381 1 0.0357158 7.047e-05 0.12719 55.845 -7.14013e-08 
382 1 0.0357518 0.0357275 0.168718 55.845 -2.85971e-07 
383 1 0.0714438 0.0357328 0.127107 55.845 -1.12822e-07 
384 1 0.0714848 0.0714901 0.168547 55.845 -1.29667e-07 
385 1 0.107168 0.071539 0.127144 55.845 -2.87671e-07 
386 1 0.107197 0.107176 0.168853 55.845 -1.10464e-07 
394 1 0.0714274 -9.50711e-06 0.168974 55.845 -3.90012e-07 
395 1 0.107091 2.11853e-05 0.127147 55.845 7.02539e-08 
396 1 0.107152 0.0357445 0.1688 55.845 -2.11636e-07 
463 1 0 0.107143 0.0416667 55.845 6.64044e-08 
471 1 0 0.0357143 0.0416667 55.845 -8.76935e-08 
472 1 1.87962e-05 0.0714759 0.0845947 55.845 2.65067e-07 
473 1 0.0357143 0.0714286 0.0416667 55.845 -9.53994e-08 
474 1 0.0357131 0.107141 0.0844923 55.845 2.96065e-07 
475 1 0.0714286 0.107143 0.0416667 55.845 -4.13775e-07 
482 1 -5.33062e-05 -3.23196e-05 0.084615 55.845 -1.12131e-08 
483 1 0.0357143 0 0.0416667 55.845 -3.43336e-07 
484 1 0.0356466 0.0357404 0.0846348 55.845 2.08186e-07 
485 1 0.0714286 0.0357143 0.0416667 55.845 -3.28582e-07 
486 1 0.0714538 0.0713785 0.0844929 55.845 3.26293e-07 
487 1 0.107143 0.0714286 0.0416667 55.845 -5.49448e-07 
488 1 0.107089 0.107239 0.0847833 55.845 3.80156e-07 
496 1 0.0714677 7.09736e-05 0.0846864 55.845 1.45857e-07 
497 1 0.107143 0 0.0416667 55.845 -1.1149e-07 
498 1 0.107252 0.0357054 0.0845773 55.845 2.01981e-07 
567 1 0 0.0714286 0 55.845 3.86442e-07 
568 1 0.0357143 0.107143 0 55.845 1.72917e-07 
572 1 0 0 0 55.845 -2.71821e-08 
573 1 0.0357143 0.0357143 0 55.845 1.84315e-07 
574 1 0.0714286 0.0714286 0 55.845 1.42328e-07 
575 1 0.107143 0.107143 0 55.845 1.01233e-07 
579 1 0.0714286 0 0 55.845 1.87415e-07 
580 1 0.107143 0.0357143 0 55.845 1.4095e-07 
285 1 0.142833 0.107118 0.210915 55.845 5.87013e-08 
295 1 0.142847 0.0357136 0.210902 55.845 4.08517e-07 
297 1 0.17859 0.071463 0.21085 55.845 1.00175e-07 
299 1 0.21434 0.107155 0.210746 55.845 -5.14405e-08 
307 1 0.178584 3.58356e-05 0.210839 55.845 6.59661e-07 
309 1 0.214208 0.0357843 0.210874 55.845 2.89822e-07 
311 1 0.250026 0.0714837 0.210797 55.845 9.54464e-09 
387 1 0.142889 0.107179 0.12724 55.845 -3.09784e-07 
397 1 0.142904 0.0356948 0.127165 55.845 -9.16138e-08 
398 1 0.142876 0.0714195 0.168783 55.845 -6.55565e-08 
399 1 0.178622 0.0714382 0.127191 55.845 -2.12006e-07 
400 1 0.178499 0.107171 0.168869 55.845 -6.40212e-08 
401 1 0.214355 0.107216 0.127197 55.845 -1.95984e-07 
408 1 0.14287 -7.85985e-05 0.168929 55.845 -3.15939e-07 
409 1 0.178594 5.19737e-06 0.127224 55.845 2.51916e-07 
410 1 0.178521 0.0357478 0.168682 55.845 -2.19471e-07 
411 1 0.214212 0.0356475 0.127251 55.845 -4.12353e-08 
412 1 0.214309 0.071483 0.168731 55.845 -1.18304e-07 
413 1 0.25003 0.0714421 0.127053 55.845 -2.48077e-07 
414 1 0.250087 0.107145 0.168775 55.845 1.05393e-07 
424 1 0.214291 -2.55599e-05 0.16878 55.845 -5.7601e-07 
426 1 0.249839 0.0357539 0.168696 55.845 -3.27219e-07 
489 1 0.142857 0.107143 0.0416667 55.845 -4.13862e-07 
499 1 0.142857 0.0357143 0.0416667 55.845 -3.38461e-07 
500 1 0.142786 0.0714442 0.084807 55.845 2.8734e-07 
501 1 0.178571 0.0714286 0.0416667 55.845 -3.24757e-07 
502 1 0.178581 0.107162 0.0846599 55.845 4.14968e-07 
503 1 0.214286 0.107143 0.0416667 55.845 -2.08819e-07 
510 1 0.142785 -3.46524e-05 0.0845666 55.845 1.46571e-07 
511 1 0.178571 0 0.0416667 55.845 -1.31441e-07 
512 1 0.1785 0.0357235 0.0846456 55.845 1.74905e-07 
513 1 0.214286 0.0357143 0.0416667 55.845 -2.5101e-07 
514 1 0.214276 0.0714613 0.084692 55.845 3.28864e-07 
515 1 0.25 0.0714286 0.0416667 55.845 -3.48314e-07 
516 1 0.250017 0.10717 0.0846575 55.845 3.73525e-07 
526 1 0.214299 -6.16069e-06 0.0846301 55.845 -8.37961e-08 
528 1 0.249883 0.0356031 0.0847466 55.845 2.08376e-07 
581 1 0.142857 0.0714286 0 55.845 1.29643e-07 
582 1 0.178571 0.107143 0 55.845 2.78028e-07 
586 1 0.142857 0 0 55.845 1.98765e-07 
587 1 0.178571 0.0357143 0 55.845 1.24648e-07 
588 1 0.214286 0.0714286 0 55.845 2.91972e-07 
589 1 0.25 0.107143 0 55.845 2.38621e-07 
594 1 0.214286 0 0 55.845 4.8793e-09 
595 1 0.25 0.0357143 0 55.845 1.79691e-07 
313 1 0.285656 0.107126 0.210889 55.845 -9.64873e-08 
323 1 0.250036 6.56755e-05 0.210885 55.845 5.96524e-07 
325 1 0.285665 0.0357184 0.210915 55.845 8.51476e-08 
327 1 0.321428 0.0714403 0.210948 55.845 -3.48416e-07 
329 1 0.357094 0.107169 0.21081 55.845 -4.48087e-07 
337 1 0.321481 4.94152e-06 0.21076 55.845 2.16211e-07 
339 1 0.357156 0.0358102 0.210877 55.845 -2.45778e-07 
415 1 0.28576 0.107096 0.127044 55.845 -3.98327e-07 
425 1 0.250013 -4.0153e-05 0.127281 55.845 1.0824e-07 
427 1 0.285634 0.0357484 0.127139 55.845 -2.5067e-07 
428 1 0.285734 0.0714507 0.168829 55.845 9.99555e-08 
429 1 0.321404 0.0714938 0.127058 55.845 -6.21451e-07 
430 1 0.321475 0.107153 0.168794 55.845 3.49527e-07 
431 1 0.357124 0.107166 0.127147 55.845 -5.95742e-07 
439 1 0.32142 1.20069e-05 0.127063 55.845 -1.38425e-07 
440 1 0.321388 0.035783 0.168699 55.845 1.55527e-07 
441 1 0.357069 0.0357598 0.126977 55.845 -5.99126e-07 
442 1 0.357007 0.0714355 0.168762 55.845 3.93265e-07 
517 1 0.285714 0.107143 0.0416667 55.845 -4.89218e-07 
527 1 0.25 0 0.0416667 55.845 -1.99447e-07 
529 1 0.285714 0.0357143 0.0416667 55.845 -3.58443e-07 
530 1 0.285672 0.0714147 0.0845469 55.845 4.25382e-07 
531 1 0.321429 0.0714286 0.0416667 55.845 -6.04706e-07 
532 1 0.321475 0.107188 0.0846465 55.845 4.724e-07 
533 1 0.357143 0.107143 0.0416667 55.845 -5.06214e-07 
603 1 0.357143 0.0714286 0 55.845 9.21576e-08 
541 1 0.321429 0 0.0416667 55.845 -1.95031e-07 
542 1 0.321449 0.0357555 0.0845212 55.845 5.77608e-07 
543 1 0.357143 0.0357143 0.0416667 55.845 -5.27446e-07 
544 1 0.357133 0.0714513 0.0844225 55.845 5.35373e-07 
602 1 0.321429 0.0357143 0 55.845 2.1517e-07 
596 1 0.285714 0.0714286 0 55.845 1.74605e-07 
597 1 0.321429 0.107143 0 55.845 8.0246e-08 
612 1 0.464286 0.0357143 0 55.845 2.26216e-07 
611 1 0.428571 0 0 55.845 2.18845e-07 
610 1 0.464286 0.107143 0 55.845 2.09923e-07 
609 1 0.428571 0.0714286 0 55.845 1.94638e-07 
608 1 0.392857 0.0357143 0 55.845 2.00535e-07 
341 1 0.392807 0.0714536 0.210755 55.845 -3.08821e-07 
343 1 0.428641 0.107079 0.210914 55.845 1.31329e-07 
348 1 0.392918 -1.02039e-05 0.21072 55.845 -1.02885e-07 
350 1 0.428528 0.0357407 0.21068 55.845 -1.08647e-07 
352 1 0.464309 0.071461 0.21079 55.845 4.71411e-08 
355 1 0.464283 3.71014e-05 0.210774 55.845 6.33029e-08 
443 1 0.39277 0.0714534 0.127153 55.845 -7.02574e-07 
444 1 0.392833 0.107154 0.168829 55.845 2.68186e-07 
445 1 0.428485 0.107156 0.127094 55.845 -2.60094e-07 
604 1 0.392857 0.107143 0 55.845 1.5293e-07 
450 1 0.392881 -7.48119e-05 0.127045 55.845 -4.49882e-07 
451 1 0.392727 0.0357632 0.168681 55.845 2.91838e-07 
452 1 0.428565 0.035704 0.127169 55.845 -5.78028e-07 
453 1 0.4286 0.0714051 0.16866 55.845 1.28094e-07 
454 1 0.46427 0.0714577 0.127162 55.845 -3.26214e-07 
455 1 0.464304 0.107277 0.168641 55.845 -2.28509e-07 
456 1 0.428651 7.79325e-06 0.16875 55.845 1.41787e-07 
457 1 0.464273 -3.65084e-05 0.127002 55.845 -4.54973e-07 
458 1 0.464291 0.0357084 0.168737 55.845 2.81935e-08 
545 1 0.392857 0.0714286 0.0416667 55.845 -6.51277e-07 
546 1 0.392914 0.107113 0.0846371 55.845 3.99598e-07 
547 1 0.428571 0.107143 0.0416667 55.845 -3.1686e-07 
552 1 0.392857 0 0.0416667 55.845 -3.92871e-07 
553 1 0.392806 0.0357672 0.0846398 55.845 5.52162e-07 
554 1 0.428571 0.0357143 0.0416667 55.845 -5.82551e-07 
555 1 0.428612 0.0713395 0.0845578 55.845 4.36097e-07 
556 1 0.464286 0.0714286 0.0416667 55.845 -3.66859e-07 
557 1 0.464315 0.107114 0.0845855 55.845 2.68809e-07 
558 1 0.428556 -4.95361e-07 0.0845414 55.845 5.4531e-07 
559 1 0.464286 0 0.0416667 55.845 -5.5185e-07 
560 1 0.464262 0.0357504 0.0846424 55.845 5.23075e-07 
255 1 -5.19348e-06 0.178572 0.210852 55.845 4.50015e-07 
257 1 0.0357043 0.214257 0.210805 55.845 2.60999e-07 
261 1 0.0357003 0.142927 0.21086 55.845 5.4426e-07 
263 1 0.0713903 0.178644 0.210943 55.845 3.72567e-07 
265 1 0.107132 0.214309 0.21087 55.845 3.74983e-07 
273 1 0.107059 0.142914 0.210821 55.845 2.90952e-07 
357 1 -2.90914e-05 0.178565 0.127104 55.845 -3.97664e-08 
358 1 -3.91022e-05 0.214287 0.168621 55.845 -1.61489e-07 
359 1 0.035772 0.214285 0.127131 55.845 -3.56498e-08 
360 1 0.0356973 0.249995 0.168716 55.845 -3.00748e-07 
362 1 -9.30133e-05 0.142831 0.168597 55.845 -4.69874e-07 
363 1 0.0356941 0.142839 0.127163 55.845 1.8685e-08 
364 1 0.0357292 0.178542 0.168675 55.845 -4.08949e-07 
365 1 0.0713992 0.178581 0.127266 55.845 -7.59844e-08 
366 1 0.0714765 0.214332 0.168814 55.845 -4.58201e-07 
367 1 0.107159 0.214233 0.126965 55.845 -2.31531e-08 
368 1 0.107203 0.249948 0.168651 55.845 -4.02937e-07 
374 1 0.0714115 0.142888 0.168706 55.845 -2.19452e-07 
375 1 0.107129 0.142925 0.127155 55.845 -1.98328e-07 
376 1 0.107136 0.178626 0.168863 55.845 -2.86135e-07 
459 1 0 0.178571 0.0416667 55.845 -3.15503e-07 
460 1 -4.51666e-06 0.214331 0.0845311 55.845 5.0291e-08 
461 1 0.0357143 0.214286 0.0416667 55.845 -1.96394e-07 
462 1 0.035644 0.250012 0.0846567 55.845 3.37928e-07 
464 1 -3.01388e-05 0.142887 0.084572 55.845 -1.31055e-07 
465 1 0.0357143 0.142857 0.0416667 55.845 -3.04178e-07 
466 1 0.0357527 0.178619 0.0846682 55.845 -1.81183e-08 
467 1 0.0714286 0.178571 0.0416667 55.845 -2.70789e-07 
468 1 0.0713751 0.214278 0.0846681 55.845 2.59703e-07 
469 1 0.107143 0.214286 0.0416667 55.845 -1.74145e-07 
470 1 0.107129 0.250018 0.0845494 55.845 1.81543e-07 
476 1 0.0713866 0.142907 0.0846484 55.845 2.58743e-07 
477 1 0.107143 0.142857 0.0416667 55.845 -3.81676e-07 
478 1 0.107149 0.178564 0.0846321 55.845 3.28644e-07 
561 1 0 0.214286 0 55.845 3.74427e-08 
562 1 0.0357143 0.25 0 55.845 2.94827e-07 
563 1 0 0.142857 0 55.845 5.52762e-09 
564 1 0.0357143 0.178571 0 55.845 1.20529e-08 
565 1 0.0714286 0.214286 0 55.845 2.81785e-07 
566 1 0.107143 0.25 0 55.845 1.61133e-07 
569 1 0.0714286 0.142857 0 55.845 9.78114e-08 
570 1 0.107143 0.178571 0 55.845 2.4298e-07 
275 1 0.142875 0.178531 0.210759 55.845 2.98658e-07 
277 1 0.178485 0.214239 0.210836 55.845 4.6213e-07 
287 1 0.178626 0.142803 0.210846 55.845 -2.18663e-09 
289 1 0.214269 0.178601 0.210976 55.845 2.00323e-07 
291 1 0.249999 0.214299 0.210733 55.845 2.34993e-07 
301 1 0.250046 0.142906 0.210762 55.845 1.01835e-07 
377 1 0.142902 0.178627 0.127121 55.845 -1.02461e-07 
378 1 0.142813 0.214241 0.168752 55.845 -2.63539e-07 
379 1 0.178617 0.21429 0.127157 55.845 -1.08894e-07 
388 1 0.14287 0.142905 0.16875 55.845 -1.17572e-07 
389 1 0.178585 0.142886 0.127078 55.845 -1.86808e-07 
390 1 0.178575 0.178508 0.16875 55.845 -1.47637e-07 
391 1 0.214305 0.178606 0.127154 55.845 -1.93961e-07 
392 1 0.214319 0.214271 0.168735 55.845 -3.27954e-07 
393 1 0.250138 0.2142 0.127025 55.845 -2.25925e-07 
402 1 0.214317 0.142836 0.168799 55.845 -5.34754e-08 
403 1 0.25004 0.14282 0.127141 55.845 -2.38e-07 
404 1 0.249983 0.178625 0.168764 55.845 -2.46516e-07 
479 1 0.142857 0.178571 0.0416667 55.845 -2.45168e-07 
480 1 0.14278 0.214396 0.0846642 55.845 1.94675e-07 
481 1 0.178571 0.214286 0.0416667 55.845 -3.97272e-07 
490 1 0.142883 0.142876 0.0845355 55.845 4.27997e-07 
491 1 0.178571 0.142857 0.0416667 55.845 -2.18589e-07 
492 1 0.178598 0.178716 0.084574 55.845 2.19107e-07 
493 1 0.214286 0.178571 0.0416667 55.845 -3.91089e-07 
494 1 0.214278 0.214358 0.0847723 55.845 1.21455e-07 
495 1 0.25 0.214286 0.0416667 55.845 -4.04831e-07 
504 1 0.214363 0.142896 0.084685 55.845 3.02406e-07 
505 1 0.25 0.142857 0.0416667 55.845 -3.70966e-07 
506 1 0.250022 0.178619 0.0845743 55.845 1.49948e-07 
571 1 0.142857 0.214286 0 55.845 1.37766e-07 
576 1 0.142857 0.142857 0 55.845 2.42439e-07 
577 1 0.178571 0.178571 0 55.845 1.13403e-07 
578 1 0.214286 0.214286 0 55.845 -1.07478e-09 
583 1 0.214286 0.142857 0 55.845 1.93221e-07 
584 1 0.25 0.178571 0 55.845 5.47031e-08 
303 1 0.285697 0.178518 0.210912 55.845 9.54832e-08 
305 1 0.321475 0.214373 0.210979 55.845 2.61431e-07 
315 1 0.321469 0.142793 0.210913 55.845 -2.03477e-07 
317 1 0.357161 0.178592 0.210804 55.845 4.43919e-08 
405 1 0.28575 0.178612 0.127122 55.845 -2.67722e-07 
406 1 0.285767 0.21426 0.168878 55.845 -4.03516e-07 
407 1 0.321471 0.214179 0.127154 55.845 -1.49568e-07 
416 1 0.285745 0.142809 0.168789 55.845 1.21042e-07 
417 1 0.321461 0.142853 0.127191 55.845 -3.58042e-07 
418 1 0.321411 0.178587 0.16886 55.845 -8.2082e-08 
419 1 0.357191 0.178553 0.126985 55.845 -1.0526e-07 
420 1 0.357152 0.21433 0.168855 55.845 -3.62481e-07 
432 1 0.357192 0.142915 0.168915 55.845 1.95071e-07 
507 1 0.285714 0.178571 0.0416667 55.845 -3.68038e-07 
508 1 0.285841 0.214357 0.0845798 55.845 2.78935e-07 
509 1 0.321429 0.214286 0.0416667 55.845 -2.51041e-07 
518 1 0.285681 0.142929 0.0846447 55.845 3.39055e-07 
519 1 0.321429 0.142857 0.0416667 55.845 -3.5336e-07 
520 1 0.321377 0.178568 0.0845472 55.845 3.70161e-07 
521 1 0.357143 0.178571 0.0416667 55.845 -1.32127e-07 
522 1 0.357195 0.214299 0.0846329 55.845 1.50998e-07 
534 1 0.357178 0.142827 0.0847145 55.845 4.49714e-07 
585 1 0.285714 0.214286 0 55.845 2.00858e-07 
590 1 0.285714 0.142857 0 55.845 1.08726e-07 
591 1 0.321429 0.178571 0 55.845 2.18423e-07 
592 1 0.357143 0.214286 0 55.845 1.54738e-07 
598 1 0.357143 0.142857 0 55.845 2.13317e-07 
319 1 0.392842 0.214338 0.210911 55.845 6.26897e-07 
321 1 0.428628 0.25003 0.210853 55.845 1.06778e-06 
331 1 0.392853 0.142821 0.210924 55.845 -5.14444e-08 
333 1 0.428573 0.178537 0.21089 55.845 6.16263e-07 
335 1 0.464304 0.214203 0.210775 55.845 9.96098e-07 
345 1 0.464277 0.142788 0.210828 55.845 6.73456e-07 
606 1 0.464286 0.178571 0 55.845 -1.1927e-08 
421 1 0.392846 0.21429 0.127234 55.845 1.12356e-07 
422 1 0.392856 0.250054 0.168797 55.845 -6.3848e-07 
423 1 0.428491 0.249968 0.127285 55.845 3.89396e-07 
433 1 0.392817 0.142937 0.127098 55.845 -1.50393e-07 
434 1 0.392966 0.178598 0.168867 55.845 -3.00141e-07 
435 1 0.428615 0.178602 0.12706 55.845 2.18318e-07 
436 1 0.428543 0.214299 0.168877 55.845 -8.68847e-07 
437 1 0.464215 0.214213 0.127165 55.845 4.20162e-07 
605 1 0.428571 0.142857 0 55.845 1.91856e-07 
446 1 0.428582 0.142894 0.168876 55.845 -2.24775e-07 
447 1 0.464303 0.142853 0.12713 55.845 1.68578e-07 
448 1 0.46429 0.178491 0.168858 55.845 -7.378e-07 
523 1 0.392857 0.214286 0.0416667 55.845 -1.94505e-07 
524 1 0.392875 0.250038 0.0846363 55.845 -1.86137e-07 
525 1 0.428571 0.25 0.0416667 55.845 -1.47783e-07 
535 1 0.392857 0.142857 0.0416667 55.845 -1.4002e-07 
536 1 0.392895 0.17858 0.0845876 55.845 1.82796e-07 
537 1 0.428571 0.178571 0.0416667 55.845 -1.10644e-07 
538 1 0.428533 0.214347 0.0847054 55.845 -2.06147e-07 
539 1 0.464286 0.214286 0.0416667 55.845 -8.54909e-08 
548 1 0.42858 0.142832 0.0846856 55.845 2.18972e-07 
549 1 0.464286 0.142857 0.0416667 55.845 -1.60586e-07 
550 1 0.464279 0.178496 0.0846918 55.845 -1.77757e-07 
593 1 0.392857 0.25 0 55.845 -5.48191e-08 
599 1 0.392857 0.178571 0 55.845 2.3771e-07 
600 1 0.428571 0.214286 0 55.845 2.91715e-08 
3 1 -3.23333e-05 0.107121 0.463385 55.845 -1.46108e-07 
7 1 4.08847e-05 0.0357413 0.463372 55.845 3.9291e-08 
8 1 0.0356975 0.0714716 0.463353 55.845 1.94331e-07 
9 1 0.0713678 0.107114 0.463355 55.845 2.11133e-07 
13 1 0.0358047 8.61039e-05 0.463455 55.845 -1.4345e-07 
14 1 0.0713751 0.035761 0.463364 55.845 9.37218e-08 
15 1 0.107159 0.0714487 0.463446 55.845 2.66589e-07 
20 1 0.107165 -5.65165e-05 0.463434 55.845 2.51149e-08 
55 1 7.63542e-05 0.107169 0.379813 55.845 1.97019e-07 
63 1 5.83722e-05 0.0357446 0.379752 55.845 3.41449e-07 
64 1 -3.34618e-05 0.0714935 0.422279 55.845 4.02743e-07 
65 1 0.0357617 0.0714127 0.37984 55.845 3.3879e-07 
66 1 0.0357719 0.107136 0.422244 55.845 3.4437e-07 
67 1 0.0714706 0.107088 0.379912 55.845 4.20509e-07 
74 1 7.62772e-05 5.66496e-05 0.422345 55.845 2.57837e-07 
75 1 0.0358494 -2.24796e-06 0.379878 55.845 1.85691e-07 
76 1 0.0358452 0.0357667 0.422249 55.845 1.7883e-07 
77 1 0.0715447 0.0358097 0.379988 55.845 3.0839e-07 
78 1 0.0714877 0.071406 0.422345 55.845 1.45939e-08 
79 1 0.107201 0.0713819 0.379895 55.845 4.86105e-07 
80 1 0.10722 0.107104 0.422402 55.845 -8.44924e-08 
88 1 0.071458 1.20517e-05 0.42244 55.845 2.61811e-07 
89 1 0.107199 -8.69997e-05 0.380006 55.845 3.40448e-07 
90 1 0.107182 0.0356539 0.422452 55.845 6.33372e-08 
157 1 -2.9714e-05 0.10722 0.294535 55.845 7.16366e-07 
165 1 4.63249e-05 0.0358051 0.294707 55.845 8.46237e-07 
166 1 0.000137562 0.0715482 0.336709 55.845 -6.77077e-07 
167 1 0.0356993 0.0715733 0.294553 55.845 8.18622e-07 
168 1 0.0357703 0.107193 0.336602 55.845 -4.90929e-07 
169 1 0.0713698 0.107119 0.29452 55.845 9.62295e-07 
176 1 0.000102501 1.20499e-05 0.336658 55.845 -4.64266e-07 
177 1 0.0358124 0.000100534 0.294779 55.845 8.35772e-07 
178 1 0.0358133 0.0358264 0.33667 55.845 -6.42833e-07 
179 1 0.0714683 0.0357028 0.294767 55.845 8.36894e-07 
180 1 0.0714958 0.071483 0.33664 55.845 -6.36987e-07 
181 1 0.107174 0.0713475 0.294534 55.845 9.46689e-07 
182 1 0.107167 0.107088 0.336787 55.845 -7.38102e-07 
190 1 0.0715751 -2.01685e-05 0.336699 55.845 -5.58916e-07 
191 1 0.107192 2.8102e-05 0.294786 55.845 8.44101e-07 
192 1 0.107284 0.0357642 0.336712 55.845 -6.38647e-07 
268 1 -6.91873e-06 0.0714146 0.252795 55.845 -9.27553e-07 
270 1 0.0356438 0.10722 0.252597 55.845 -6.6039e-07 
278 1 -2.50041e-06 1.36242e-05 0.252793 55.845 -5.70061e-07 
280 1 0.0357446 0.0357553 0.252771 55.845 -8.22974e-07 
282 1 0.0714137 0.0714308 0.252904 55.845 -6.16912e-07 
284 1 0.107215 0.107167 0.252902 55.845 -5.5718e-07 
292 1 0.0715239 -1.0749e-05 0.252956 55.845 -8.32124e-07 
294 1 0.107196 0.0357153 0.252882 55.845 -6.56338e-07 
16 1 0.142918 0.107211 0.463353 55.845 2.13578e-07 
21 1 0.142816 0.0357048 0.463482 55.845 1.66921e-07 
22 1 0.178658 0.0713701 0.463478 55.845 1.78988e-07 
23 1 0.214325 0.107087 0.46335 55.845 1.43415e-08 
27 1 0.178597 -0.000113922 0.463618 55.845 -9.24039e-09 
28 1 0.214297 0.035652 0.46346 55.845 -1.26187e-08 
29 1 0.250091 0.0714035 0.463479 55.845 -9.16533e-08 
81 1 0.142824 0.10716 0.379904 55.845 4.27973e-07 
91 1 0.142992 0.0357993 0.379913 55.845 5.50174e-07 
92 1 0.142962 0.0713436 0.422456 55.845 -2.95395e-08 
93 1 0.17853 0.0714784 0.379959 55.845 4.64404e-07 
94 1 0.178507 0.107135 0.422343 55.845 1.2909e-07 
95 1 0.214291 0.107154 0.379986 55.845 2.46676e-07 
102 1 0.142918 -3.59245e-05 0.422438 55.845 3.44582e-07 
103 1 0.178706 1.79961e-08 0.380041 55.845 4.00252e-07 
104 1 0.178602 0.0356906 0.42244 55.845 1.3081e-07 
105 1 0.214264 0.0357186 0.380032 55.845 2.07507e-07 
106 1 0.214308 0.071346 0.422503 55.845 2.49437e-07 
107 1 0.250013 0.0714034 0.379963 55.845 5.08631e-08 
108 1 0.249982 0.107104 0.422279 55.845 5.24571e-07 
118 1 0.214274 -6.86717e-05 0.42238 55.845 1.30615e-07 
120 1 0.250081 0.0357355 0.422265 55.845 2.14276e-07 
183 1 0.142897 0.107152 0.29484 55.845 7.46392e-07 
193 1 0.142964 0.0357935 0.29461 55.845 1.04916e-06 
194 1 0.142981 0.0714851 0.33671 55.845 -6.65785e-07 
195 1 0.178611 0.0715315 0.294654 55.845 8.5064e-07 
196 1 0.178667 0.107129 0.336911 55.845 -6.02106e-07 
197 1 0.2144 0.107123 0.294671 55.845 6.3223e-07 
204 1 0.142948 9.21953e-05 0.336753 55.845 -5.56109e-07 
205 1 0.178639 -3.25546e-05 0.294543 55.845 1.10144e-06 
206 1 0.178661 0.0358051 0.336795 55.845 -6.14286e-07 
207 1 0.214281 0.0357031 0.294634 55.845 7.93148e-07 
208 1 0.214302 0.0714372 0.336883 55.845 -4.88469e-07 
209 1 0.250045 0.071467 0.294721 55.845 4.58423e-07 
210 1 0.250027 0.107166 0.336712 55.845 -1.10898e-07 
220 1 0.21427 0.000142245 0.336726 55.845 -7.95867e-07 
222 1 0.250011 0.0357414 0.336701 55.845 -6.74514e-07 
296 1 0.142883 0.0714435 0.252824 55.845 -5.33504e-07 
298 1 0.178609 0.107079 0.252945 55.845 -6.04196e-07 
306 1 0.142917 -5.31147e-05 0.252829 55.845 -7.45524e-07 
308 1 0.178573 0.0357502 0.252775 55.845 -6.92601e-07 
310 1 0.21422 0.0714405 0.252845 55.845 -6.3369e-07 
312 1 0.250023 0.107208 0.252927 55.845 -2.47878e-07 
322 1 0.214272 -7.77725e-05 0.252898 55.845 -9.59821e-07 
324 1 0.249957 0.0357581 0.252764 55.845 -8.53259e-07 
30 1 0.285809 0.107066 0.463309 55.845 -1.79246e-07 
35 1 0.250025 5.56834e-06 0.46325 55.845 -8.44184e-08 
36 1 0.285794 0.0357523 0.463505 55.845 -5.24977e-08 
37 1 0.321477 0.0713535 0.463311 55.845 -1.36928e-07 
38 1 0.357252 0.107015 0.463438 55.845 -1.16967e-07 
42 1 0.321351 3.71362e-05 0.463342 55.845 1.38227e-07 
43 1 0.357107 0.03569 0.463409 55.845 7.73154e-08 
109 1 0.28571 0.107045 0.379911 55.845 -6.9787e-08 
119 1 0.250008 6.40254e-05 0.379963 55.845 2.60353e-07 
121 1 0.285725 0.0356772 0.379838 55.845 3.0831e-08 
122 1 0.28569 0.0713187 0.422359 55.845 3.78283e-07 
123 1 0.321475 0.0714357 0.379822 55.845 -1.25661e-07 
124 1 0.321473 0.107093 0.422333 55.845 3.65846e-07 
125 1 0.357143 0.107195 0.379937 55.845 -1.07325e-07 
133 1 0.321474 -1.98701e-06 0.379921 55.845 3.5237e-07 
134 1 0.3214 0.0356683 0.422357 55.845 3.24426e-07 
135 1 0.357141 0.035701 0.379833 55.845 1.83602e-07 
136 1 0.357179 0.0713288 0.422332 55.845 1.61826e-07 
211 1 0.285696 0.107106 0.294641 55.845 3.62515e-07 
221 1 0.249979 -1.38381e-05 0.29474 55.845 9.04084e-07 
223 1 0.285699 0.0357137 0.294703 55.845 4.46992e-07 
224 1 0.285788 0.0715259 0.336851 55.845 -2.71984e-07 
225 1 0.321444 0.0713713 0.294648 55.845 1.99992e-07 
226 1 0.321427 0.107113 0.336703 55.845 -1.57417e-07 
227 1 0.357055 0.107131 0.294696 55.845 1.86936e-07 
235 1 0.321441 -3.42298e-05 0.294792 55.845 7.38053e-07 
236 1 0.32147 0.0357043 0.336732 55.845 -3.17414e-07 
237 1 0.357206 0.0357035 0.294695 55.845 3.92415e-07 
238 1 0.357118 0.0713992 0.33678 55.845 -2.64292e-07 
326 1 0.285766 0.071315 0.252853 55.845 -3.03795e-07 
328 1 0.321443 0.107143 0.252901 55.845 2.59078e-08 
338 1 0.32145 0.0356386 0.252835 55.845 -2.47069e-07 
340 1 0.357175 0.0714506 0.252761 55.845 3.51705e-09 
44 1 0.392899 0.0714409 0.463307 55.845 -1.88359e-09 
45 1 0.428592 0.107025 0.463248 55.845 8.98483e-08 
47 1 0.392896 6.27007e-05 0.463398 55.845 7.69091e-08 
48 1 0.428592 0.0356882 0.46339 55.845 4.38756e-08 
49 1 0.464254 0.0714994 0.463348 55.845 1.22972e-07 
50 1 0.464287 4.60592e-05 0.463316 55.845 1.23403e-07 
137 1 0.392874 0.0714905 0.379949 55.845 1.86717e-07 
138 1 0.392882 0.10711 0.4223 55.845 1.99204e-07 
139 1 0.428558 0.107171 0.379806 55.845 4.45302e-07 
144 1 0.392742 -8.02134e-05 0.379775 55.845 2.37412e-07 
145 1 0.392853 0.0356629 0.422203 55.845 1.51978e-07 
146 1 0.428602 0.0357566 0.379871 55.845 2.87645e-07 
147 1 0.428604 0.0714185 0.422127 55.845 1.62717e-07 
148 1 0.464265 0.0714681 0.379884 55.845 3.08225e-07 
149 1 0.46436 0.107108 0.422283 55.845 3.08365e-07 
150 1 0.428472 1.57923e-05 0.422339 55.845 5.53214e-08 
151 1 0.464285 2.27934e-05 0.380169 55.845 2.7647e-07 
152 1 0.464305 0.0356985 0.42231 55.845 3.77545e-08 
239 1 0.392882 0.0714248 0.294746 55.845 3.85809e-07 
240 1 0.392831 0.107108 0.3366 55.845 -3.74569e-07 
241 1 0.428677 0.107108 0.294671 55.845 7.98503e-07 
246 1 0.392886 -1.11021e-05 0.294707 55.845 4.7162e-07 
247 1 0.392916 0.0357303 0.336679 55.845 -3.27503e-07 
248 1 0.428556 0.0356434 0.294594 55.845 5.41215e-07 
249 1 0.428622 0.0714083 0.336769 55.845 -3.70686e-07 
250 1 0.464259 0.0714409 0.294573 55.845 7.04695e-07 
251 1 0.4643 0.107174 0.336764 55.845 -4.39412e-07 
252 1 0.428617 3.58598e-05 0.336761 55.845 -5.83887e-07 
253 1 0.46433 9.1126e-05 0.29466 55.845 7.47717e-07 
254 1 0.46429 0.0357305 0.336699 55.845 -6.0767e-07 
342 1 0.392798 0.10716 0.252784 55.845 -2.26657e-07 
349 1 0.392876 0.0357877 0.252757 55.845 -2.24865e-07 
351 1 0.428617 0.0714124 0.252803 55.845 -3.47027e-07 
353 1 0.464326 0.107119 0.25285 55.845 -6.05377e-07 
354 1 0.428626 -2.54951e-05 0.252852 55.845 -5.13632e-07 
356 1 0.464241 0.035732 0.252735 55.845 -6.21762e-07 
1 1 8.03695e-05 0.178605 0.463347 55.845 -3.98487e-07 
2 1 0.0356852 0.214312 0.463457 55.845 -1.43413e-07 
4 1 0.0357749 0.142914 0.463262 55.845 -1.59224e-07 
5 1 0.0714942 0.178618 0.463402 55.845 -3.38445e-08 
6 1 0.107163 0.214326 0.463381 55.845 1.20759e-07 
10 1 0.107108 0.14285 0.463356 55.845 1.75221e-07 
51 1 6.62781e-05 0.178693 0.379902 55.845 1.74075e-07 
52 1 -1.76914e-05 0.21429 0.422577 55.845 3.26968e-07 
53 1 0.0357382 0.214266 0.379842 55.845 1.97156e-07 
54 1 0.0357176 0.250028 0.422461 55.845 9.70513e-08 
56 1 4.18005e-05 0.142917 0.422325 55.845 4.90951e-07 
57 1 0.0357048 0.14286 0.379859 55.845 2.50093e-07 
58 1 0.0357764 0.178645 0.422285 55.845 3.12147e-07 
59 1 0.0714312 0.178548 0.379814 55.845 2.82436e-07 
60 1 0.0714564 0.214323 0.422321 55.845 1.26862e-07 
61 1 0.107189 0.214283 0.379814 55.845 5.28322e-07 
62 1 0.107183 0.249988 0.422384 55.845 1.29019e-09 
68 1 0.0713672 0.142801 0.422327 55.845 1.99606e-07 
69 1 0.107127 0.142951 0.379768 55.845 3.44282e-07 
70 1 0.107226 0.178539 0.422351 55.845 1.05669e-07 
153 1 -5.01609e-05 0.178615 0.294607 55.845 8.48747e-07 
154 1 -2.19506e-05 0.214312 0.336772 55.845 -4.24627e-07 
155 1 0.0356955 0.214285 0.294715 55.845 7.07942e-07 
156 1 0.0356697 0.250067 0.336736 55.845 -8.58458e-07 
158 1 1.59856e-05 0.142919 0.336738 55.845 -3.73577e-07 
159 1 0.0356887 0.14286 0.294664 55.845 9.03881e-07 
160 1 0.0356561 0.178571 0.336709 55.845 -4.1348e-07 
161 1 0.071456 0.178534 0.294729 55.845 7.8716e-07 
162 1 0.0713945 0.214275 0.336721 55.845 -7.90467e-07 
163 1 0.107219 0.214261 0.294696 55.845 8.95897e-07 
164 1 0.107135 0.249992 0.336535 55.845 -8.44526e-07 
170 1 0.0713834 0.142845 0.336655 55.845 -5.20416e-07 
171 1 0.107126 0.142938 0.294764 55.845 7.7608e-07 
172 1 0.107185 0.178621 0.336699 55.845 -7.3152e-07 
256 1 -9.74607e-05 0.214287 0.252742 55.845 -5.12437e-07 
258 1 0.0356162 0.249947 0.252846 55.845 -9.42468e-07 
260 1 3.27841e-05 0.142884 0.252744 55.845 -7.04088e-07 
262 1 0.0357813 0.178643 0.252995 55.845 -6.65782e-07 
264 1 0.071406 0.214292 0.252964 55.845 -1.02079e-06 
266 1 0.107155 0.250056 0.252849 55.845 -9.72507e-07 
272 1 0.0713645 0.142835 0.252846 55.845 -6.16189e-07 
274 1 0.107167 0.178566 0.25296 55.845 -8.354e-07 
11 1 0.14288 0.178594 0.463409 55.845 1.02759e-07 
12 1 0.178565 0.214299 0.463487 55.845 -8.16044e-08 
17 1 0.17859 0.142913 0.463444 55.845 8.14323e-08 
18 1 0.214181 0.17857 0.46337 55.845 -2.31445e-07 
19 1 0.249919 0.214295 0.463362 55.845 -2.25006e-07 
24 1 0.250027 0.142875 0.463459 55.845 -2.16596e-07 
71 1 0.142892 0.178574 0.379902 55.845 4.02135e-07 
72 1 0.142889 0.214332 0.422409 55.845 9.60808e-08 
73 1 0.178555 0.214284 0.37991 55.845 3.88992e-07 
82 1 0.142861 0.142895 0.422517 55.845 -4.192e-09 
83 1 0.178453 0.142895 0.379775 55.845 2.436e-07 
84 1 0.178468 0.178584 0.422501 55.845 1.34328e-07 
85 1 0.214295 0.178519 0.379885 55.845 1.01045e-07 
86 1 0.214221 0.21432 0.422429 55.845 1.34781e-07 
87 1 0.250017 0.214228 0.380002 55.845 -1.36132e-08 
96 1 0.214244 0.142906 0.422348 55.845 3.73794e-07 
97 1 0.250033 0.142834 0.379942 55.845 6.04875e-08 
98 1 0.24998 0.178546 0.42234 55.845 3.80105e-07 
173 1 0.142904 0.178556 0.294724 55.845 8.13474e-07 
174 1 0.142907 0.214273 0.336612 55.845 -7.0238e-07 
175 1 0.17861 0.214216 0.294786 55.845 9.73742e-07 
184 1 0.142819 0.142856 0.336722 55.845 -8.35669e-07 
185 1 0.178553 0.14289 0.294701 55.845 6.34638e-07 
186 1 0.178559 0.178536 0.336761 55.845 -7.16261e-07 
187 1 0.214337 0.178617 0.294639 55.845 6.64888e-07 
188 1 0.2143 0.21424 0.336805 55.845 -6.91178e-07 
189 1 0.250094 0.21432 0.29478 55.845 5.43117e-07 
198 1 0.214243 0.142857 0.336693 55.845 -3.60623e-07 
199 1 0.250012 0.142852 0.294662 55.845 6.18482e-07 
200 1 0.250062 0.178583 0.336804 55.845 -4.00421e-07 
276 1 0.142903 0.214196 0.252877 55.845 -7.82429e-07 
286 1 0.142883 0.142862 0.252798 55.845 -7.24513e-07 
288 1 0.17857 0.178533 0.252817 55.845 -6.90581e-07 
290 1 0.214263 0.214321 0.252892 55.845 -7.78926e-07 
300 1 0.2143 0.142876 0.252976 55.845 -5.05864e-07 
302 1 0.250059 0.178607 0.252868 55.845 -6.12207e-07 
25 1 0.28567 0.178602 0.463531 55.845 -2.73061e-07 
26 1 0.321363 0.214431 0.463449 55.845 2.20618e-08 
31 1 0.321458 0.142852 0.463428 55.845 -1.52165e-07 
32 1 0.357194 0.178579 0.463308 55.845 2.53418e-08 
99 1 0.285717 0.178537 0.379891 55.845 -1.56532e-09 
100 1 0.285715 0.214231 0.422306 55.845 2.55839e-07 
101 1 0.321574 0.214298 0.379855 55.845 3.69856e-07 
110 1 0.285716 0.142843 0.422384 55.845 5.88799e-07 
111 1 0.32145 0.142868 0.379995 55.845 -6.66868e-08 
112 1 0.32141 0.178618 0.422431 55.845 3.93568e-07 
113 1 0.357153 0.178541 0.379951 55.845 2.54962e-07 
114 1 0.357199 0.214311 0.422462 55.845 1.14563e-07 
126 1 0.357164 0.142826 0.422383 55.845 2.80697e-07 
201 1 0.285829 0.178592 0.294744 55.845 4.90725e-07 
202 1 0.285799 0.214346 0.336777 55.845 -6.53907e-07 
203 1 0.321534 0.214268 0.294734 55.845 7.62843e-07 
212 1 0.285692 0.142835 0.336817 55.845 -3.55971e-08 
213 1 0.321385 0.142843 0.294774 55.845 2.87086e-07 
214 1 0.321423 0.17861 0.336725 55.845 -3.84177e-07 
215 1 0.357144 0.178579 0.2946 55.845 5.55387e-07 
216 1 0.357204 0.214256 0.336684 55.845 -6.48241e-07 