ITEM: TIMESTEP
8600
ITEM: NUMBER OF ATOMS
5880
ITEM: BOX BOUNDS pp pp ff
-28.0065 28.0065
-28.0065 28.0065
0 34.092
ITEM: ATOMS id type xs ys zs mass q 
259 1 -5.78673e-05 0.107128 0.207568 55.845 3.12385e-08 
267 1 -8.15624e-05 0.0357128 0.207513 55.845 -3.99773e-07 
269 1 0.0357324 0.0713873 0.207639 55.845 -4.18478e-07 
271 1 0.0715045 0.107129 0.207382 55.845 -2.81637e-07 
279 1 0.0357196 -5.09605e-05 0.207591 55.845 -5.83338e-07 
281 1 0.0715476 0.0356971 0.207565 55.845 -6.90392e-07 
283 1 0.107182 0.071477 0.20749 55.845 -6.57337e-07 
293 1 0.107135 4.6161e-05 0.207639 55.845 -5.77251e-07 
361 1 -0.00011226 0.107176 0.12319 55.845 3.88097e-07 
369 1 -0.000112826 0.0356389 0.12325 55.845 2.5291e-08 
370 1 -0.000108697 0.0714108 0.165536 55.845 2.75292e-08 
371 1 0.0355925 0.0713163 0.123247 55.845 -1.81363e-08 
372 1 0.0356074 0.107152 0.165575 55.845 3.11686e-08 
373 1 0.0714148 0.107237 0.123144 55.845 5.19078e-08 
380 1 -7.72084e-05 2.06344e-06 0.165732 55.845 2.84139e-07 
381 1 0.0356768 -6.7815e-06 0.123358 55.845 -9.57324e-08 
382 1 0.0356937 0.0356764 0.165585 55.845 3.89611e-07 
383 1 0.071356 0.0356645 0.123163 55.845 -6.80457e-08 
384 1 0.0713878 0.0714427 0.165556 55.845 3.73771e-07 
385 1 0.107032 0.0715108 0.123223 55.845 -2.6746e-07 
386 1 0.10714 0.107172 0.165729 55.845 4.00679e-07 
394 1 0.0713562 -1.22718e-05 0.165617 55.845 3.35833e-07 
395 1 0.107109 3.29351e-06 0.122998 55.845 1.43495e-07 
396 1 0.10715 0.0357556 0.165495 55.845 5.6643e-07 
463 1 0 0.107143 0.0416667 55.845 -2.44031e-07 
471 1 0 0.0357143 0.0416667 55.845 -3.07625e-07 
472 1 -9.26078e-05 0.0714169 0.0826322 55.845 4.61747e-08 
473 1 0.0357143 0.0714286 0.0416667 55.845 -3.78312e-07 
474 1 0.0357276 0.107096 0.082668 55.845 8.69923e-08 
475 1 0.0714286 0.107143 0.0416667 55.845 -3.97905e-07 
482 1 -1.46948e-05 -2.57209e-05 0.0826796 55.845 2.05813e-08 
483 1 0.0357143 0 0.0416667 55.845 -2.90938e-07 
484 1 0.0357325 0.0356873 0.0824374 55.845 6.19635e-08 
485 1 0.0714286 0.0357143 0.0416667 55.845 -3.3271e-07 
486 1 0.0714215 0.0714953 0.082651 55.845 2.76153e-07 
487 1 0.107143 0.0714286 0.0416667 55.845 -3.82717e-07 
488 1 0.107051 0.107189 0.0826055 55.845 1.57207e-07 
496 1 0.0713961 4.53361e-05 0.0825549 55.845 -1.27842e-08 
497 1 0.107143 0 0.0416667 55.845 -1.91476e-07 
498 1 0.107106 0.0357705 0.0824947 55.845 1.48663e-07 
567 1 0 0.0714286 0 55.845 -6.88772e-08 
568 1 0.0357143 0.107143 0 55.845 -8.28736e-08 
572 1 0 0 0 55.845 8.86115e-08 
573 1 0.0357143 0.0357143 0 55.845 -1.16507e-08 
574 1 0.0714286 0.0714286 0 55.845 -3.54774e-08 
575 1 0.107143 0.107143 0 55.845 5.71054e-08 
579 1 0.0714286 0 0 55.845 -6.38689e-08 
580 1 0.107143 0.0357143 0 55.845 -3.93081e-08 
285 1 0.14289 0.107035 0.207607 55.845 -6.39015e-07 
295 1 0.142853 0.0357231 0.20765 55.845 -7.82674e-07 
297 1 0.178581 0.0714107 0.207432 55.845 -6.37778e-07 
299 1 0.214372 0.107106 0.207609 55.845 -4.93236e-07 
307 1 0.178518 3.16444e-05 0.207754 55.845 -3.82527e-07 
309 1 0.214254 0.0356967 0.207478 55.845 -4.41181e-07 
311 1 0.249989 0.0714786 0.207457 55.845 -3.40637e-07 
387 1 0.142822 0.107205 0.123207 55.845 -1.70921e-07 
397 1 0.14279 0.0357432 0.123023 55.845 -1.39422e-07 
398 1 0.142797 0.071393 0.165443 55.845 6.55805e-07 
399 1 0.178506 0.0714215 0.122935 55.845 -2.97286e-07 
400 1 0.178561 0.107147 0.165512 55.845 5.11407e-07 
401 1 0.214181 0.10725 0.123379 55.845 1.69185e-08 
408 1 0.1428 -8.83802e-05 0.165489 55.845 3.01357e-07 
409 1 0.178509 -0.000107097 0.123197 55.845 1.98999e-07 
410 1 0.178537 0.0356884 0.165649 55.845 4.92201e-07 
411 1 0.214322 0.0356949 0.123181 55.845 1.03558e-07 
412 1 0.214295 0.0714622 0.165473 55.845 3.90367e-07 
413 1 0.250021 0.0714207 0.123167 55.845 2.27048e-08 
414 1 0.250019 0.107256 0.165575 55.845 2.54476e-07 
424 1 0.21429 -8.16518e-05 0.165569 55.845 2.39624e-08 
426 1 0.250067 0.035645 0.165518 55.845 1.83183e-07 
489 1 0.142857 0.107143 0.0416667 55.845 -4.0014e-07 
499 1 0.142857 0.0357143 0.0416667 55.845 -4.06773e-07 
500 1 0.142838 0.0713876 0.0825995 55.845 4.14205e-07 
501 1 0.178571 0.0714286 0.0416667 55.845 -3.96243e-07 
502 1 0.17856 0.107121 0.0825397 55.845 1.17597e-07 
503 1 0.214286 0.107143 0.0416667 55.845 -2.68484e-07 
510 1 0.142864 -4.10924e-05 0.0824979 55.845 1.47598e-07 
511 1 0.178571 0 0.0416667 55.845 -2.7098e-07 
512 1 0.178559 0.0356431 0.0825559 55.845 3.15346e-07 
513 1 0.214286 0.0357143 0.0416667 55.845 -4.10455e-07 
514 1 0.214204 0.071473 0.082564 55.845 2.75682e-07 
515 1 0.25 0.0714286 0.0416667 55.845 -2.48455e-07 
516 1 0.250014 0.107197 0.0827667 55.845 -6.16656e-08 
526 1 0.214241 -1.55955e-05 0.0824405 55.845 1.46246e-07 
528 1 0.249982 0.0357072 0.0826144 55.845 1.19395e-07 
581 1 0.142857 0.0714286 0 55.845 -1.72982e-08 
582 1 0.178571 0.107143 0 55.845 1.23121e-07 
586 1 0.142857 0 0 55.845 -1.92268e-07 
587 1 0.178571 0.0357143 0 55.845 -1.2513e-08 
588 1 0.214286 0.0714286 0 55.845 -2.28508e-08 
589 1 0.25 0.107143 0 55.845 6.50863e-08 
594 1 0.214286 0 0 55.845 -2.37656e-07 
595 1 0.25 0.0357143 0 55.845 -5.03747e-08 
313 1 0.285663 0.107055 0.207585 55.845 -4.64105e-07 
323 1 0.249918 -8.82296e-05 0.207532 55.845 -1.56721e-07 
325 1 0.285676 0.0356355 0.207555 55.845 -4.24983e-07 
327 1 0.321417 0.0713795 0.207688 55.845 -3.91933e-07 
329 1 0.35707 0.107051 0.20754 55.845 -6.41056e-07 
337 1 0.321497 1.52185e-05 0.20763 55.845 -3.01961e-07 
339 1 0.357177 0.0357283 0.207397 55.845 -3.90703e-07 
415 1 0.285773 0.106986 0.123125 55.845 1.06729e-07 
425 1 0.250015 -0.000110774 0.123167 55.845 3.92615e-07 
427 1 0.285717 0.0356545 0.123021 55.845 1.8777e-07 
428 1 0.285696 0.0714859 0.165436 55.845 2.65675e-07 
429 1 0.321421 0.0714309 0.123213 55.845 -1.15082e-07 
430 1 0.321351 0.107176 0.165761 55.845 3.978e-07 
431 1 0.357158 0.107116 0.123433 55.845 7.09317e-08 
439 1 0.321467 -7.72265e-06 0.123055 55.845 1.16906e-07 
440 1 0.321376 0.0356758 0.165555 55.845 3.11687e-07 
441 1 0.357196 0.0357036 0.123223 55.845 -1.57229e-08 
442 1 0.357197 0.0713537 0.165605 55.845 3.38234e-07 
517 1 0.285714 0.107143 0.0416667 55.845 -3.00484e-07 
527 1 0.25 0 0.0416667 55.845 -1.23932e-07 
529 1 0.285714 0.0357143 0.0416667 55.845 -3.8381e-07 
530 1 0.2857 0.0714229 0.0823231 55.845 2.13326e-07 
531 1 0.321429 0.0714286 0.0416667 55.845 -3.49924e-07 
532 1 0.321486 0.107212 0.082619 55.845 1.92263e-07 
533 1 0.357143 0.107143 0.0416667 55.845 -3.82046e-07 
603 1 0.357143 0.0714286 0 55.845 3.96121e-08 
541 1 0.321429 0 0.0416667 55.845 -1.25846e-07 
542 1 0.321389 0.0357793 0.082629 55.845 2.33532e-07 
543 1 0.357143 0.0357143 0.0416667 55.845 -4.72195e-07 
544 1 0.357098 0.0714094 0.0825934 55.845 3.24759e-07 
602 1 0.321429 0.0357143 0 55.845 -1.09086e-08 
596 1 0.285714 0.0714286 0 55.845 4.02598e-09 
597 1 0.321429 0.107143 0 55.845 -1.24583e-09 
612 1 0.464286 0.0357143 0 55.845 7.90263e-09 
611 1 0.428571 0 0 55.845 1.5509e-07 
610 1 0.464286 0.107143 0 55.845 -1.62228e-07 
609 1 0.428571 0.0714286 0 55.845 -1.12359e-08 
608 1 0.392857 0.0357143 0 55.845 4.6008e-08 
341 1 0.392839 0.0714668 0.207489 55.845 -4.58784e-07 
343 1 0.428515 0.107159 0.207372 55.845 -6.6558e-07 
348 1 0.392859 2.29738e-05 0.207468 55.845 -2.28845e-07 
350 1 0.428617 0.0358009 0.207442 55.845 -5.72908e-07 
352 1 0.464226 0.0714621 0.207534 55.845 -5.08373e-07 
355 1 0.46432 -7.52377e-05 0.207437 55.845 -4.77215e-07 
443 1 0.392826 0.0714965 0.123365 55.845 -2.63169e-08 
444 1 0.392859 0.107209 0.16548 55.845 3.76781e-07 
445 1 0.428565 0.107183 0.123033 55.845 2.84166e-07 
604 1 0.392857 0.107143 0 55.845 -1.16902e-07 
450 1 0.393052 2.68825e-05 0.123214 55.845 -9.37401e-08 
451 1 0.393001 0.0357617 0.165576 55.845 3.43144e-07 
452 1 0.428643 0.035741 0.123188 55.845 -8.37702e-08 
453 1 0.428565 0.0715647 0.165391 55.845 3.84791e-07 
454 1 0.464203 0.0715324 0.122976 55.845 1.01595e-07 
455 1 0.464254 0.107155 0.165577 55.845 1.56609e-07 
456 1 0.428589 -6.3984e-05 0.165553 55.845 3.51968e-07 
457 1 0.464332 -3.57502e-05 0.123207 55.845 -1.83972e-07 
458 1 0.464233 0.0358177 0.165572 55.845 4.91768e-07 
545 1 0.392857 0.0714286 0.0416667 55.845 -2.94531e-07 
546 1 0.392842 0.107191 0.0825243 55.845 1.20441e-07 
547 1 0.428571 0.107143 0.0416667 55.845 -2.1267e-07 
552 1 0.392857 0 0.0416667 55.845 -2.66625e-07 
553 1 0.392874 0.0356512 0.0826824 55.845 2.49288e-07 
554 1 0.428571 0.0357143 0.0416667 55.845 -3.27956e-07 
555 1 0.428534 0.0714223 0.0823232 55.845 1.25031e-07 
556 1 0.464286 0.0714286 0.0416667 55.845 -1.88648e-07 
557 1 0.464338 0.107152 0.0824656 55.845 6.41284e-08 
558 1 0.428669 2.23162e-05 0.0826109 55.845 9.68413e-08 
559 1 0.464286 0 0.0416667 55.845 -1.85889e-07 
560 1 0.464315 0.0356934 0.082569 55.845 1.1508e-07 
255 1 -3.65356e-05 0.178453 0.207502 55.845 -2.68153e-08 
257 1 0.0357358 0.214258 0.207638 55.845 -1.92142e-07 
261 1 0.0357762 0.142918 0.207788 55.845 -8.34383e-09 
263 1 0.0713424 0.17851 0.207912 55.845 4.21717e-08 
265 1 0.107124 0.214239 0.207729 55.845 7.67464e-08 
273 1 0.10735 0.142847 0.207479 55.845 -2.00868e-07 
357 1 -7.08654e-06 0.178548 0.123061 55.845 6.68957e-07 
358 1 5.35187e-05 0.214162 0.165589 55.845 -5.21552e-09 
359 1 0.0358009 0.214208 0.123277 55.845 4.87415e-07 
360 1 0.0357892 0.250058 0.165792 55.845 1.51798e-07 
362 1 3.97483e-05 0.142872 0.165555 55.845 -3.53826e-07 
363 1 0.0356803 0.142891 0.12329 55.845 4.66704e-07 
364 1 0.0357009 0.178567 0.165654 55.845 -1.71285e-07 
365 1 0.0714298 0.17857 0.123374 55.845 4.41516e-07 
366 1 0.071461 0.214268 0.165548 55.845 -1.78817e-07 
367 1 0.107067 0.214324 0.12312 55.845 3.12158e-07 
368 1 0.107148 0.24986 0.165717 55.845 4.69687e-09 
374 1 0.0715695 0.142848 0.165677 55.845 -8.06304e-08 
375 1 0.107092 0.142824 0.123299 55.845 1.32183e-07 
376 1 0.107095 0.178636 0.165631 55.845 -2.36e-08 
459 1 0 0.178571 0.0416667 55.845 7.84992e-10 
460 1 1.51277e-05 0.214173 0.0824569 55.845 -1.26434e-07 
461 1 0.0357143 0.214286 0.0416667 55.845 -1.00055e-07 
462 1 0.0357328 0.250008 0.0826439 55.845 -2.98742e-08 
464 1 2.11625e-05 0.142841 0.0825596 55.845 -1.76846e-07 
465 1 0.0357143 0.142857 0.0416667 55.845 -1.92343e-07 
466 1 0.0357028 0.178663 0.0824577 55.845 -2.29273e-07 
467 1 0.0714286 0.178571 0.0416667 55.845 -1.18647e-07 
468 1 0.0714343 0.214299 0.0826192 55.845 -1.04042e-07 
469 1 0.107143 0.214286 0.0416667 55.845 -9.32157e-08 
470 1 0.107166 0.249868 0.0824839 55.845 -1.42952e-07 
476 1 0.0714255 0.142866 0.0826271 55.845 1.52577e-09 
477 1 0.107143 0.142857 0.0416667 55.845 -2.10359e-07 
478 1 0.107153 0.178498 0.0826799 55.845 -2.46766e-07 
561 1 0 0.214286 0 55.845 -3.22125e-07 
562 1 0.0357143 0.25 0 55.845 -1.11576e-07 
563 1 0 0.142857 0 55.845 -2.65011e-07 
564 1 0.0357143 0.178571 0 55.845 -2.17422e-07 
565 1 0.0714286 0.214286 0 55.845 -1.6505e-07 
566 1 0.107143 0.25 0 55.845 1.62788e-08 
569 1 0.0714286 0.142857 0 55.845 -1.06361e-07 
570 1 0.107143 0.178571 0 55.845 6.93336e-09 
275 1 0.142945 0.178554 0.207761 55.845 -1.80796e-07 
277 1 0.178559 0.214244 0.207584 55.845 -3.04477e-08 
287 1 0.178605 0.142723 0.207577 55.845 -3.61785e-07 
289 1 0.214369 0.178464 0.207602 55.845 -1.45295e-07 
291 1 0.249959 0.214298 0.207403 55.845 7.89063e-08 
301 1 0.250003 0.142834 0.207736 55.845 -2.00508e-07 
377 1 0.142806 0.178612 0.12317 55.845 1.95269e-07 
378 1 0.142885 0.21436 0.165639 55.845 -1.61144e-08 
379 1 0.178564 0.214305 0.123192 55.845 5.18528e-08 
388 1 0.143029 0.142877 0.165498 55.845 2.35384e-07 
389 1 0.178653 0.142915 0.12318 55.845 -1.03557e-09 
390 1 0.178573 0.178553 0.165644 55.845 1.56136e-07 
391 1 0.2144 0.178518 0.123341 55.845 1.75643e-07 
392 1 0.214246 0.214205 0.165532 55.845 3.71356e-09 
393 1 0.249978 0.214342 0.123259 55.845 1.32811e-07 
402 1 0.214306 0.142877 0.165729 55.845 1.55091e-07 
403 1 0.250061 0.142848 0.123207 55.845 1.66157e-07 
404 1 0.250075 0.178561 0.165548 55.845 5.03836e-08 
479 1 0.142857 0.178571 0.0416667 55.845 -1.36413e-07 
480 1 0.142906 0.214241 0.0827257 55.845 -1.27787e-07 
481 1 0.178571 0.214286 0.0416667 55.845 -6.47512e-08 
490 1 0.142864 0.142829 0.0826044 55.845 -1.72342e-08 
491 1 0.178571 0.142857 0.0416667 55.845 -1.62485e-07 
492 1 0.178656 0.178539 0.0825255 55.845 -2.50525e-07 
493 1 0.214286 0.178571 0.0416667 55.845 -1.16025e-07 
494 1 0.214291 0.214257 0.0825017 55.845 -1.48751e-07 
495 1 0.25 0.214286 0.0416667 55.845 -1.53011e-07 
504 1 0.21431 0.142862 0.0825351 55.845 -1.44127e-07 
505 1 0.25 0.142857 0.0416667 55.845 -9.95105e-08 
506 1 0.249844 0.178663 0.0825639 55.845 -1.89679e-07 
571 1 0.142857 0.214286 0 55.845 2.63142e-09 
576 1 0.142857 0.142857 0 55.845 4.19072e-08 
577 1 0.178571 0.178571 0 55.845 1.33452e-07 
578 1 0.214286 0.214286 0 55.845 1.02716e-07 
583 1 0.214286 0.142857 0 55.845 9.58536e-08 
584 1 0.25 0.178571 0 55.845 1.18763e-07 
303 1 0.285763 0.17846 0.207596 55.845 -2.56653e-07 
305 1 0.321425 0.214325 0.207688 55.845 -3.39749e-07 
315 1 0.321465 0.142914 0.207602 55.845 -4.57771e-07 
317 1 0.357159 0.178532 0.207632 55.845 -7.0505e-07 
405 1 0.285762 0.178562 0.123196 55.845 7.88156e-08 
406 1 0.285717 0.214335 0.165664 55.845 9.71816e-08 
407 1 0.321428 0.214272 0.123262 55.845 -6.211e-08 
416 1 0.285721 0.142763 0.165606 55.845 1.80627e-07 
417 1 0.321445 0.142889 0.12343 55.845 -5.14473e-08 
418 1 0.321471 0.17869 0.165572 55.845 3.93686e-07 
419 1 0.357172 0.178536 0.123046 55.845 2.891e-08 
420 1 0.357149 0.214153 0.165607 55.845 3.88534e-07 
432 1 0.357214 0.142877 0.165625 55.845 3.94837e-07 
507 1 0.285714 0.178571 0.0416667 55.845 -2.72995e-07 
508 1 0.285702 0.214373 0.0825326 55.845 7.91195e-08 
509 1 0.321429 0.214286 0.0416667 55.845 -3.27703e-07 
518 1 0.285727 0.142845 0.082546 55.845 9.23942e-09 
519 1 0.321429 0.142857 0.0416667 55.845 -2.73114e-07 
520 1 0.321496 0.178501 0.082668 55.845 2.1166e-07 
521 1 0.357143 0.178571 0.0416667 55.845 -3.71632e-07 
522 1 0.357094 0.21429 0.0827235 55.845 2.71298e-07 
534 1 0.357136 0.142856 0.082567 55.845 2.30022e-07 
585 1 0.285714 0.214286 0 55.845 9.15669e-08 
590 1 0.285714 0.142857 0 55.845 6.3723e-08 
591 1 0.321429 0.178571 0 55.845 1.01517e-08 
592 1 0.357143 0.214286 0 55.845 -5.88636e-08 
598 1 0.357143 0.142857 0 55.845 -4.54735e-08 
319 1 0.39277 0.2144 0.207558 55.845 -6.29327e-07 
321 1 0.42857 0.250005 0.207386 55.845 -5.99982e-07 
331 1 0.392925 0.142798 0.207628 55.845 -6.01107e-07 
333 1 0.428486 0.178509 0.207664 55.845 -6.05842e-07 
335 1 0.464218 0.214201 0.207683 55.845 -2.89744e-07 
345 1 0.464193 0.142818 0.207522 55.845 -2.49479e-07 
606 1 0.464286 0.178571 0 55.845 -2.38127e-07 
421 1 0.392922 0.214302 0.123167 55.845 1.66418e-07 
422 1 0.392842 0.249923 0.165595 55.845 3.87904e-07 
423 1 0.428471 0.250058 0.12321 55.845 2.625e-07 
433 1 0.392894 0.142949 0.12328 55.845 1.64244e-07 
434 1 0.392886 0.178638 0.165753 55.845 4.0371e-07 
435 1 0.428534 0.178553 0.123205 55.845 3.32196e-07 
436 1 0.428562 0.214291 0.165611 55.845 2.24674e-07 
437 1 0.464363 0.214128 0.123355 55.845 3.74745e-07 
605 1 0.428571 0.142857 0 55.845 -1.94204e-07 
446 1 0.428543 0.142882 0.165479 55.845 2.31373e-07 
447 1 0.464296 0.142855 0.123085 55.845 3.54121e-07 
448 1 0.464235 0.178602 0.165596 55.845 6.40287e-08 
523 1 0.392857 0.214286 0.0416667 55.845 -2.35376e-07 
524 1 0.392772 0.250065 0.0826352 55.845 9.02383e-08 
525 1 0.428571 0.25 0.0416667 55.845 -2.28395e-07 
535 1 0.392857 0.142857 0.0416667 55.845 -1.98305e-07 
536 1 0.392822 0.178645 0.082545 55.845 1.77396e-07 
537 1 0.428571 0.178571 0.0416667 55.845 -2.54689e-07 
538 1 0.428558 0.214284 0.0824381 55.845 1.52902e-07 
539 1 0.464286 0.214286 0.0416667 55.845 -2.42565e-07 
548 1 0.428455 0.142825 0.0824652 55.845 1.29131e-07 
549 1 0.464286 0.142857 0.0416667 55.845 -2.3181e-07 
550 1 0.464253 0.17849 0.0824378 55.845 1.68589e-07 
593 1 0.392857 0.25 0 55.845 -1.45121e-07 
599 1 0.392857 0.178571 0 55.845 -1.77657e-07 
600 1 0.428571 0.214286 0 55.845 -2.45108e-07 
3 1 0.000166143 0.107031 0.457065 55.845 -2.93484e-07 
7 1 5.4171e-05 0.0357242 0.457075 55.845 2.31904e-07 
8 1 0.0358237 0.0714827 0.45698 55.845 -2.53735e-08 
9 1 0.0715255 0.107226 0.457029 55.845 1.05335e-07 
13 1 0.035702 -3.94711e-05 0.456965 55.845 3.02856e-07 
14 1 0.0713917 0.0357484 0.456964 55.845 2.07766e-07 
15 1 0.10725 0.0715168 0.456996 55.845 3.65515e-07 
20 1 0.107146 4.7052e-05 0.45683 55.845 1.75612e-07 
55 1 0.000158719 0.107068 0.374699 55.845 -5.15834e-07 
63 1 0.000106212 0.0356146 0.37446 55.845 -3.13736e-07 
64 1 2.2545e-05 0.0713287 0.416164 55.845 1.26239e-07 
65 1 0.0356697 0.0712801 0.374612 55.845 -5.48097e-07 
66 1 0.0357803 0.107111 0.416136 55.845 1.89133e-07 
67 1 0.0713965 0.107159 0.374824 55.845 -3.34989e-07 
74 1 0.000101877 -5.63657e-05 0.41598 55.845 -3.82344e-07 
75 1 0.0358374 -7.44626e-06 0.374453 55.845 -3.70999e-07 
76 1 0.03578 0.0357142 0.416291 55.845 -3.46526e-08 
77 1 0.0714281 0.0357885 0.374506 55.845 -3.9574e-07 
78 1 0.0714946 0.0713187 0.416017 55.845 -7.68086e-08 
79 1 0.107248 0.0714411 0.37469 55.845 -1.64239e-07 
80 1 0.107173 0.107157 0.415958 55.845 -3.80503e-07 
88 1 0.0715074 4.47977e-05 0.41597 55.845 -4.69997e-08 
89 1 0.107148 0.000131529 0.374478 55.845 -3.06588e-07 
90 1 0.107122 0.0357229 0.416025 55.845 -3.08697e-07 
157 1 2.4846e-05 0.107227 0.28948 55.845 -1.84802e-07 
165 1 -3.3509e-05 0.0358629 0.289563 55.845 -4.00216e-07 
166 1 5.43601e-05 0.0713432 0.331982 55.845 4.45521e-07 
167 1 0.0356953 0.0714615 0.289441 55.845 -3.33774e-07 
168 1 0.0357667 0.107123 0.332004 55.845 5.22135e-07 
169 1 0.0714332 0.107128 0.289624 55.845 -2.28124e-07 
176 1 -0.000103321 4.09657e-07 0.331901 55.845 1.87809e-07 
177 1 0.0355993 -1.64366e-05 0.289503 55.845 -4.16823e-07 
178 1 0.0358007 0.0357145 0.331943 55.845 4.62321e-07 
179 1 0.071462 0.0358073 0.289642 55.845 -4.47008e-07 
180 1 0.0713812 0.0714591 0.33221 55.845 3.58191e-07 
181 1 0.107003 0.0715279 0.289688 55.845 -4.11987e-07 
182 1 0.107166 0.107123 0.331979 55.845 3.17345e-07 
190 1 0.0714417 4.18393e-05 0.331951 55.845 3.83238e-07 
191 1 0.107143 7.16161e-05 0.289429 55.845 -4.14356e-07 
192 1 0.107204 0.0358022 0.331877 55.845 4.37256e-07 
268 1 4.02565e-05 0.0714868 0.248554 55.845 4.43845e-07 
270 1 0.0358095 0.1072 0.248733 55.845 2.36208e-07 
278 1 -4.27108e-05 6.57457e-05 0.248721 55.845 7.82383e-07 
280 1 0.0357027 0.0357195 0.248714 55.845 7.20673e-07 
282 1 0.0714286 0.0713268 0.24862 55.845 6.8554e-07 
284 1 0.107132 0.107113 0.248644 55.845 5.43769e-07 
292 1 0.0713923 4.98367e-05 0.248864 55.845 7.9076e-07 
294 1 0.107226 0.0358326 0.248755 55.845 7.29248e-07 
16 1 0.142898 0.107129 0.45699 55.845 4.20595e-07 
21 1 0.142897 0.03561 0.457046 55.845 3.72149e-07 
22 1 0.178526 0.0714737 0.456986 55.845 2.28965e-07 
23 1 0.214282 0.107138 0.457043 55.845 2.00541e-07 
27 1 0.178542 -5.30465e-05 0.456833 55.845 -2.79657e-08 
28 1 0.21426 0.035672 0.457109 55.845 1.74717e-07 
29 1 0.249954 0.0714427 0.457072 55.845 1.08029e-07 
81 1 0.143006 0.10723 0.374747 55.845 -2.91735e-07 
91 1 0.142833 0.0357638 0.374591 55.845 -1.80275e-07 
92 1 0.142907 0.0713944 0.416168 55.845 -3.91212e-07 
93 1 0.178558 0.0715283 0.374703 55.845 -1.48536e-07 
94 1 0.178725 0.107195 0.416144 55.845 -1.76531e-07 
95 1 0.214331 0.107097 0.374705 55.845 -5.38005e-07 
102 1 0.142837 -2.06688e-05 0.41599 55.845 -9.69117e-08 
103 1 0.178541 6.21801e-05 0.37479 55.845 -2.15095e-07 
104 1 0.178501 0.0357758 0.416216 55.845 -3.41153e-07 
105 1 0.214269 0.0357051 0.374889 55.845 -2.57093e-07 
106 1 0.214265 0.0714919 0.416112 55.845 -2.01944e-07 
107 1 0.250097 0.0714025 0.374794 55.845 -2.62643e-07 
108 1 0.249997 0.107112 0.416074 55.845 -1.38546e-07 
118 1 0.2143 5.63232e-05 0.416226 55.845 -3.47138e-08 
120 1 0.250027 0.035763 0.41619 55.845 -1.8816e-07 
183 1 0.142955 0.107054 0.289584 55.845 -3.05506e-07 
193 1 0.142969 0.0357537 0.289698 55.845 -3.58754e-07 
194 1 0.142885 0.0714851 0.332054 55.845 2.63753e-07 
195 1 0.178598 0.0714778 0.289757 55.845 -4.55045e-07 
196 1 0.17868 0.107196 0.332201 55.845 3.94378e-07 
197 1 0.214432 0.10711 0.289688 55.845 -3.00934e-07 
204 1 0.142811 -6.40503e-05 0.331872 55.845 3.77525e-07 
205 1 0.178526 9.40313e-06 0.289762 55.845 -2.90491e-07 
206 1 0.17858 0.0356436 0.332127 55.845 3.99087e-07 
207 1 0.214263 0.0357214 0.289515 55.845 -2.13767e-07 
208 1 0.214333 0.0713505 0.331976 55.845 2.44726e-07 
209 1 0.24999 0.0714463 0.289762 55.845 -3.56388e-07 
210 1 0.250049 0.107127 0.332112 55.845 3.73442e-07 
220 1 0.214271 4.66824e-06 0.332343 55.845 4.19894e-07 
222 1 0.25001 0.0357402 0.332096 55.845 4.03246e-07 
296 1 0.142815 0.0714641 0.248822 55.845 8.61808e-07 
298 1 0.178651 0.107088 0.24874 55.845 7.96975e-07 
306 1 0.142922 3.16938e-05 0.248754 55.845 5.59295e-07 
308 1 0.178558 0.0358938 0.248825 55.845 5.80715e-07 
310 1 0.214271 0.0714033 0.248707 55.845 6.8683e-07 
312 1 0.250043 0.107071 0.248766 55.845 6.21415e-07 
322 1 0.214198 -4.70351e-05 0.248826 55.845 2.78592e-07 
324 1 0.25005 0.0356393 0.248716 55.845 3.80589e-07 
30 1 0.285626 0.107216 0.457091 55.845 2.03336e-07 
35 1 0.249958 -9.5587e-05 0.456896 55.845 -1.11862e-07 
36 1 0.285653 0.0356443 0.457049 55.845 8.14467e-08 
37 1 0.321453 0.0715165 0.457129 55.845 -3.14079e-08 
38 1 0.357226 0.107155 0.456909 55.845 -2.70554e-08 
42 1 0.321364 -9.96186e-05 0.456977 55.845 -1.5125e-07 
43 1 0.357143 0.0356046 0.457004 55.845 -9.82816e-08 
109 1 0.285799 0.107134 0.374767 55.845 -4.94969e-07 
119 1 0.249909 -6.48095e-05 0.374717 55.845 -3.94766e-07 
121 1 0.285668 0.0356942 0.374641 55.845 -4.17015e-07 
122 1 0.285759 0.0713878 0.416216 55.845 -1.62345e-07 
123 1 0.321493 0.0714525 0.374985 55.845 -3.66113e-07 
124 1 0.32137 0.107084 0.416052 55.845 -1.45633e-07 
125 1 0.357157 0.107161 0.374757 55.845 -6.51938e-07 
133 1 0.321375 8.57565e-07 0.374796 55.845 -6.01343e-07 
134 1 0.321443 0.0357308 0.416334 55.845 -6.27421e-08 
135 1 0.357085 0.035661 0.374977 55.845 -6.24949e-07 
136 1 0.357168 0.0713846 0.41626 55.845 3.09911e-08 
211 1 0.285736 0.107114 0.289488 55.845 -3.40397e-07 
221 1 0.249932 4.53145e-05 0.289801 55.845 -3.12956e-07 
223 1 0.285777 0.0356921 0.289712 55.845 -2.31651e-07 
224 1 0.285836 0.0714502 0.3322 55.845 2.5164e-07 
225 1 0.321439 0.0712938 0.289708 55.845 -4.45303e-07 
226 1 0.321502 0.107001 0.331842 55.845 5.19259e-07 
227 1 0.357161 0.106993 0.289822 55.845 -4.46682e-07 
235 1 0.321539 4.34529e-05 0.289747 55.845 -4.34145e-07 
236 1 0.321488 0.0358296 0.332166 55.845 4.15821e-07 
237 1 0.357298 0.0356746 0.28964 55.845 -2.55668e-07 
238 1 0.35717 0.0713106 0.332363 55.845 4.03037e-07 
326 1 0.285706 0.0713069 0.248782 55.845 6.39698e-07 
328 1 0.321441 0.107083 0.248676 55.845 6.60349e-07 
338 1 0.321446 0.0356857 0.248856 55.845 4.74021e-07 
340 1 0.357158 0.071338 0.248819 55.845 6.26074e-07 
44 1 0.392797 0.0715162 0.457008 55.845 -1.13077e-07 
45 1 0.428622 0.107201 0.457006 55.845 -2.16758e-08 
47 1 0.392946 -8.45232e-05 0.457146 55.845 -1.28457e-07 
48 1 0.42858 0.0356847 0.456972 55.845 4.10772e-08 
49 1 0.464325 0.0714002 0.457044 55.845 1.17633e-07 
50 1 0.464457 0.000106157 0.456854 55.845 -1.39037e-08 
137 1 0.392904 0.0713282 0.374898 55.845 -4.97663e-07 
138 1 0.392945 0.107269 0.416023 55.845 1.7069e-08 
139 1 0.428594 0.107178 0.374824 55.845 -5.5368e-07 
144 1 0.392977 -3.12593e-06 0.374821 55.845 -6.95967e-07 
145 1 0.392914 0.0356718 0.416153 55.845 3.90644e-09 
146 1 0.428663 0.0356491 0.374872 55.845 -6.44703e-07 
147 1 0.428584 0.0714835 0.416259 55.845 -6.81955e-08 
148 1 0.464224 0.071431 0.374448 55.845 -2.90503e-07 
149 1 0.46436 0.107136 0.415996 55.845 -2.12191e-07 
150 1 0.428727 -7.0694e-05 0.416345 55.845 6.46495e-08 
151 1 0.464265 -3.11621e-05 0.374528 55.845 -6.54584e-07 
152 1 0.464419 0.0358127 0.41604 55.845 -1.51315e-07 
239 1 0.392886 0.0713593 0.289524 55.845 -5.28461e-07 
240 1 0.392875 0.107094 0.331964 55.845 6.63195e-07 
241 1 0.428612 0.107108 0.28969 55.845 -4.31024e-07 
246 1 0.392925 -1.84153e-05 0.289637 55.845 -4.58281e-07 
247 1 0.392895 0.0357146 0.332194 55.845 4.30172e-07 
248 1 0.428438 0.0357143 0.289539 55.845 -3.62692e-07 
249 1 0.428533 0.0713292 0.332158 55.845 3.84739e-07 
250 1 0.464299 0.0714655 0.289452 55.845 -5.05512e-07 
251 1 0.464198 0.10719 0.332267 55.845 4.37707e-07 
252 1 0.4285 -4.13995e-05 0.332192 55.845 3.88383e-07 
253 1 0.464176 7.8385e-05 0.289513 55.845 -5.24937e-07 
254 1 0.464252 0.0356734 0.331871 55.845 2.95999e-07 
342 1 0.392847 0.107137 0.248733 55.845 6.91454e-07 
349 1 0.392888 0.035705 0.248571 55.845 5.59451e-07 
351 1 0.428468 0.0714525 0.248668 55.845 7.38052e-07 
353 1 0.464295 0.107125 0.248679 55.845 4.88382e-07 
354 1 0.428566 -2.90836e-05 0.248612 55.845 7.35793e-07 
356 1 0.46411 0.0357426 0.248739 55.845 7.7836e-07 
1 1 4.84402e-05 0.17859 0.456947 55.845 -3.82794e-07 
2 1 0.0356021 0.21428 0.456948 55.845 -2.59169e-07 
4 1 0.0356738 0.142812 0.457191 55.845 -1.95051e-07 
5 1 0.0714361 0.1787 0.456958 55.845 -5.31377e-08 
6 1 0.107161 0.214294 0.456884 55.845 8.15017e-10 
10 1 0.107054 0.142818 0.456825 55.845 2.86352e-07 
51 1 4.07929e-05 0.17859 0.374685 55.845 -6.01955e-07 
52 1 -9.09124e-05 0.214349 0.416049 55.845 3.05143e-07 
53 1 0.0356316 0.214348 0.374558 55.845 -6.22116e-07 
54 1 0.0356651 0.249991 0.415938 55.845 -1.59485e-08 
56 1 0.000113461 0.142818 0.41617 55.845 3.97833e-07 
57 1 0.0356923 0.142982 0.374418 55.845 -5.93771e-07 
58 1 0.035714 0.178573 0.416197 55.845 4.05673e-07 
59 1 0.0713186 0.178468 0.374495 55.845 -5.65563e-07 
60 1 0.0712882 0.214311 0.415903 55.845 2.54002e-07 
61 1 0.107089 0.21415 0.374714 55.845 -6.28786e-07 
62 1 0.107168 0.249949 0.416005 55.845 7.7395e-09 
68 1 0.07134 0.142924 0.416063 55.845 6.54124e-09 
69 1 0.107048 0.14286 0.374432 55.845 -3.04892e-07 
70 1 0.107162 0.178569 0.415929 55.845 2.52687e-09 
153 1 -0.000146234 0.178578 0.28963 55.845 -1.32682e-07 
154 1 -3.60653e-05 0.214317 0.331861 55.845 4.98629e-07 
155 1 0.0356902 0.21423 0.28969 55.845 -2.12311e-07 
156 1 0.035803 0.250014 0.331864 55.845 5.35509e-07 
158 1 -1.90726e-05 0.142853 0.332008 55.845 4.96681e-07 
159 1 0.035648 0.142788 0.289558 55.845 -1.01875e-07 
160 1 0.0355794 0.178584 0.331767 55.845 5.93685e-07 
161 1 0.0713807 0.178632 0.289471 55.845 -1.39938e-07 
162 1 0.0714647 0.214289 0.331887 55.845 4.42035e-07 
163 1 0.107056 0.214295 0.289553 55.845 -1.59269e-07 
164 1 0.107142 0.249983 0.331966 55.845 4.74641e-07 
170 1 0.071394 0.142872 0.331837 55.845 3.24079e-07 
171 1 0.107233 0.142817 0.28951 55.845 -1.94269e-07 
172 1 0.107197 0.178599 0.331812 55.845 4.27688e-07 
256 1 -3.82994e-05 0.214312 0.24873 55.845 2.99255e-07 
258 1 0.0357212 0.250087 0.248692 55.845 3.64048e-07 
260 1 -1.16182e-05 0.142873 0.248839 55.845 -3.61038e-09 
262 1 0.0355995 0.178507 0.248955 55.845 8.76307e-08 
264 1 0.071377 0.214311 0.248692 55.845 2.64113e-07 
266 1 0.107231 0.250071 0.248617 55.845 2.25028e-07 
272 1 0.0716252 0.142753 0.248724 55.845 2.75982e-07 
274 1 0.107132 0.178562 0.2487 55.845 2.74612e-07 
11 1 0.142892 0.178571 0.456871 55.845 8.99812e-08 
12 1 0.178556 0.214359 0.457129 55.845 -6.11882e-08 
17 1 0.178652 0.142811 0.457027 55.845 1.13673e-07 
18 1 0.214386 0.178628 0.457216 55.845 4.75638e-08 
19 1 0.250101 0.21421 0.457147 55.845 3.20327e-08 
24 1 0.25013 0.142908 0.45702 55.845 1.04165e-07 
71 1 0.142872 0.178573 0.374745 55.845 -6.95138e-07 
72 1 0.14294 0.214263 0.41612 55.845 3.17606e-07 
73 1 0.178451 0.214321 0.374663 55.845 -8.36736e-07 
82 1 0.142794 0.142842 0.416104 55.845 -7.77135e-08 
83 1 0.178695 0.142894 0.37477 55.845 -5.89752e-07 
84 1 0.178598 0.17853 0.416103 55.845 2.23776e-07 
85 1 0.214289 0.178493 0.374764 55.845 -8.60817e-07 
86 1 0.214324 0.214191 0.416242 55.845 3.01059e-07 
87 1 0.250054 0.214248 0.37472 55.845 -5.52166e-07 
96 1 0.214271 0.142968 0.416199 55.845 1.69651e-07 
97 1 0.250103 0.142751 0.37468 55.845 -5.42019e-07 
98 1 0.249988 0.178517 0.416196 55.845 5.90256e-09 
173 1 0.142923 0.178591 0.289659 55.845 -2.52032e-07 
174 1 0.142833 0.214306 0.332007 55.845 3.10757e-07 
175 1 0.178681 0.214357 0.28968 55.845 -2.8477e-07 
184 1 0.142814 0.142936 0.332217 55.845 2.32361e-07 
185 1 0.178585 0.142951 0.289747 55.845 -4.67666e-07 
186 1 0.178563 0.178604 0.332047 55.845 5.24065e-07 
187 1 0.214231 0.178617 0.289669 55.845 -2.80241e-07 
188 1 0.214254 0.214231 0.332279 55.845 2.24259e-07 
189 1 0.249945 0.21423 0.289505 55.845 -2.2999e-07 
198 1 0.214256 0.142774 0.332077 55.845 2.85165e-07 
199 1 0.249969 0.142931 0.289586 55.845 -4.37403e-07 
200 1 0.249899 0.178542 0.332048 55.845 3.98688e-07 
276 1 0.142857 0.214255 0.248776 55.845 5.06922e-07 
286 1 0.142993 0.142787 0.248709 55.845 7.64808e-07 
288 1 0.178604 0.178471 0.248659 55.845 6.19196e-07 
290 1 0.214271 0.214292 0.24861 55.845 5.41653e-07 
300 1 0.214289 0.142813 0.248865 55.845 8.14956e-07 
302 1 0.249992 0.17868 0.248798 55.845 5.35731e-07 
25 1 0.285694 0.178592 0.45706 55.845 1.24639e-07 
26 1 0.32145 0.214184 0.456938 55.845 -1.2205e-08 
31 1 0.321477 0.142879 0.456892 55.845 -1.99943e-08 
32 1 0.357244 0.178499 0.457013 55.845 -7.8322e-08 
99 1 0.285668 0.178594 0.374727 55.845 -5.97716e-07 
100 1 0.285715 0.214197 0.416029 55.845 -6.79999e-10 
101 1 0.321479 0.214261 0.374716 55.845 -4.25624e-07 
110 1 0.285778 0.142823 0.416077 55.845 -4.92838e-08 
111 1 0.321282 0.142801 0.374642 55.845 -4.84469e-07 
112 1 0.321423 0.178673 0.415998 55.845 -9.91e-08 
113 1 0.357148 0.178527 0.374529 55.845 -7.1482e-07 
114 1 0.357254 0.214262 0.415975 55.845 1.2333e-07 
126 1 0.357126 0.14286 0.415959 55.845 1.3914e-07 
201 1 0.28565 0.178599 0.289579 55.845 -2.67643e-07 
202 1 0.285696 0.214312 0.331882 55.845 2.11887e-07 
203 1 0.321467 0.214363 0.28978 55.845 -4.83874e-07 
212 1 0.285682 0.142805 0.331783 55.845 3.11082e-07 
213 1 0.321331 0.14283 0.28958 55.845 -5.88932e-07 
214 1 0.3215 0.17854 0.332052 55.845 5.79997e-07 
215 1 0.357207 0.178559 0.289681 55.845 -4.90758e-07 