ITEM: TIMESTEP
700
ITEM: NUMBER OF ATOMS
5880
ITEM: BOX BOUNDS pp pp ff
-27.9963 27.9963
-27.9963 27.9963
0 34.092
ITEM: ATOMS id type xs ys zs mass q 
259 1 -3.94788e-06 0.107239 0.208529 55.845 -1.65676e-08 
267 1 -3.73302e-05 0.0357166 0.208537 55.845 -6.01529e-07 
269 1 0.0356609 0.0713855 0.208636 55.845 -2.26689e-07 
271 1 0.0713533 0.107164 0.208583 55.845 -1.44831e-07 
279 1 0.0356653 4.37231e-05 0.208622 55.845 -1.94611e-07 
281 1 0.0714833 0.0357686 0.208603 55.845 -1.31999e-08 
283 1 0.107198 0.0714711 0.208587 55.845 -4.68322e-08 
293 1 0.10713 3.78361e-05 0.208515 55.845 -3.83303e-07 
361 1 -2.73096e-05 0.107107 0.125078 55.845 1.26836e-07 
369 1 -6.33363e-06 0.0357192 0.125026 55.845 1.87113e-07 
370 1 -1.87166e-05 0.0713983 0.167077 55.845 7.61903e-08 
371 1 0.0357427 0.0714144 0.125212 55.845 2.22158e-07 
372 1 0.0356331 0.107118 0.167099 55.845 1.88968e-07 
373 1 0.0713884 0.107137 0.125093 55.845 5.65005e-08 
380 1 -2.30315e-05 -2.23897e-05 0.167099 55.845 -4.84763e-08 
381 1 0.0357102 3.21121e-05 0.125052 55.845 -4.68407e-08 
382 1 0.0357023 0.0356646 0.166992 55.845 -4.15267e-08 
383 1 0.0714439 0.0356984 0.125103 55.845 -3.69573e-08 
384 1 0.0714729 0.0714985 0.167075 55.845 1.43106e-07 
385 1 0.107138 0.0714902 0.125035 55.845 -3.84699e-08 
386 1 0.107131 0.107251 0.166954 55.845 4.58673e-08 
394 1 0.0713861 -7.52582e-06 0.167057 55.845 1.49712e-07 
395 1 0.107092 1.75405e-05 0.12513 55.845 7.89641e-09 
396 1 0.107114 0.0357551 0.166994 55.845 2.6213e-08 
463 1 0 0.107143 0.0416667 55.845 -1.10971e-07 
471 1 0 0.0357143 0.0416667 55.845 5.59659e-08 
472 1 2.78507e-05 0.0714204 0.0827392 55.845 1.51076e-07 
473 1 0.0357143 0.0714286 0.0416667 55.845 2.08484e-07 
474 1 0.0356609 0.107109 0.0827311 55.845 -1.67904e-07 
475 1 0.0714286 0.107143 0.0416667 55.845 8.09796e-08 
482 1 7.32052e-06 -4.25826e-05 0.082766 55.845 -3.25368e-07 
483 1 0.0357143 0 0.0416667 55.845 -1.0224e-08 
484 1 0.0356892 0.0357275 0.0827765 55.845 -6.60077e-08 
485 1 0.0714286 0.0357143 0.0416667 55.845 -1.25249e-07 
486 1 0.0714128 0.0714147 0.0827609 55.845 -2.48004e-08 
487 1 0.107143 0.0714286 0.0416667 55.845 2.1022e-08 
488 1 0.107134 0.107146 0.0827988 55.845 -4.84354e-08 
496 1 0.0714354 1.18441e-05 0.0826874 55.845 -2.6197e-07 
497 1 0.107143 0 0.0416667 55.845 -2.80204e-07 
498 1 0.107112 0.0356581 0.0827089 55.845 -4.17455e-07 
567 1 0 0.0714286 0 55.845 -9.79337e-08 
568 1 0.0357143 0.107143 0 55.845 -3.40758e-09 
572 1 0 0 0 55.845 2.36574e-07 
573 1 0.0357143 0.0357143 0 55.845 6.35635e-08 
574 1 0.0714286 0.0714286 0 55.845 3.21448e-07 
575 1 0.107143 0.107143 0 55.845 2.9541e-07 
579 1 0.0714286 0 0 55.845 1.0956e-07 
580 1 0.107143 0.0357143 0 55.845 2.90774e-08 
285 1 0.142892 0.107245 0.20857 55.845 -1.72272e-07 
295 1 0.142817 0.0357755 0.208513 55.845 -1.38475e-07 
297 1 0.178516 0.0714383 0.208546 55.845 -1.20934e-07 
299 1 0.214232 0.107139 0.208632 55.845 -3.43146e-07 
307 1 0.178451 -7.01105e-06 0.208696 55.845 -2.95909e-07 
309 1 0.214233 0.035667 0.208616 55.845 -7.33383e-08 
311 1 0.249923 0.0713451 0.208564 55.845 -3.75918e-07 
387 1 0.142833 0.107179 0.125021 55.845 4.9042e-08 
397 1 0.142804 0.0356904 0.12511 55.845 7.90611e-09 
398 1 0.142884 0.0714604 0.167009 55.845 5.5005e-08 
399 1 0.17854 0.0714742 0.125115 55.845 1.93641e-07 
400 1 0.178601 0.107163 0.167157 55.845 2.23255e-07 
401 1 0.214278 0.107136 0.125109 55.845 -1.77064e-08 
408 1 0.142798 -6.3398e-06 0.167073 55.845 -5.63857e-08 
409 1 0.178568 4.66901e-05 0.125126 55.845 -1.04146e-07 
410 1 0.178544 0.0356824 0.167003 55.845 -5.23998e-08 
411 1 0.214268 0.035752 0.125015 55.845 -4.66856e-08 
412 1 0.214264 0.0714233 0.16706 55.845 4.14793e-08 
413 1 0.250015 0.0714232 0.125067 55.845 5.32709e-08 
414 1 0.249963 0.107122 0.166995 55.845 -1.6587e-07 
424 1 0.214245 2.23106e-05 0.167065 55.845 3.90338e-08 
426 1 0.249934 0.0356757 0.167022 55.845 1.53722e-07 
489 1 0.142857 0.107143 0.0416667 55.845 6.71614e-08 
499 1 0.142857 0.0357143 0.0416667 55.845 3.01371e-08 
500 1 0.142882 0.0714313 0.0828206 55.845 -2.88414e-07 
501 1 0.178571 0.0714286 0.0416667 55.845 1.48208e-07 
502 1 0.178599 0.107159 0.0827865 55.845 -2.00463e-07 
503 1 0.214286 0.107143 0.0416667 55.845 -2.83126e-07 
510 1 0.142849 -1.50248e-05 0.0828717 55.845 -2.20726e-07 
511 1 0.178571 0 0.0416667 55.845 -7.03525e-08 
512 1 0.178562 0.0356687 0.0826837 55.845 -2.75455e-07 
513 1 0.214286 0.0357143 0.0416667 55.845 -1.09175e-07 
514 1 0.214292 0.0714355 0.0827763 55.845 -3.24732e-07 
515 1 0.25 0.0714286 0.0416667 55.845 -1.6745e-07 
516 1 0.249971 0.107125 0.0827406 55.845 -1.86927e-07 
526 1 0.214245 5.02684e-05 0.0828054 55.845 -2.59406e-07 
528 1 0.249933 0.035702 0.0827087 55.845 -4.17808e-07 
581 1 0.142857 0.0714286 0 55.845 2.01734e-07 
582 1 0.178571 0.107143 0 55.845 -1.52048e-07 
586 1 0.142857 0 0 55.845 4.40515e-08 
587 1 0.178571 0.0357143 0 55.845 8.34046e-08 
588 1 0.214286 0.0714286 0 55.845 -2.76875e-07 
589 1 0.25 0.107143 0 55.845 3.57914e-08 
594 1 0.214286 0 0 55.845 -2.338e-08 
595 1 0.25 0.0357143 0 55.845 1.12573e-07 
313 1 0.285679 0.107165 0.208747 55.845 -1.48299e-07 
323 1 0.250035 -5.42512e-05 0.208669 55.845 -9.83227e-08 
325 1 0.285717 0.035671 0.208628 55.845 -4.0811e-07 
327 1 0.321356 0.0713701 0.208709 55.845 -3.37534e-08 
329 1 0.357085 0.10708 0.208556 55.845 -1.91173e-07 
337 1 0.321389 1.09e-05 0.20875 55.845 -1.59335e-07 
339 1 0.357159 0.0357835 0.208636 55.845 -9.32174e-08 
415 1 0.285678 0.107053 0.125116 55.845 1.90338e-07 
425 1 0.249936 -3.07292e-05 0.12502 55.845 -1.14067e-07 
427 1 0.285658 0.0357178 0.125072 55.845 1.94578e-07 
428 1 0.285646 0.0713804 0.16712 55.845 1.38345e-07 
429 1 0.321384 0.0714044 0.125085 55.845 -4.50109e-08 
430 1 0.321381 0.107096 0.167135 55.845 2.45626e-07 
431 1 0.357133 0.107164 0.125152 55.845 -1.83732e-08 
439 1 0.321412 -3.0667e-05 0.125127 55.845 1.83978e-07 
440 1 0.321378 0.0356687 0.167109 55.845 -6.71164e-08 
441 1 0.357111 0.035686 0.125092 55.845 2.39205e-07 
442 1 0.357127 0.0713857 0.167013 55.845 5.75345e-08 
517 1 0.285714 0.107143 0.0416667 55.845 2.83799e-08 
527 1 0.25 0 0.0416667 55.845 -2.48018e-08 
529 1 0.285714 0.0357143 0.0416667 55.845 3.58919e-08 
530 1 0.285668 0.0713558 0.0827223 55.845 -1.16354e-07 
531 1 0.321429 0.0714286 0.0416667 55.845 1.01862e-07 
532 1 0.321405 0.107053 0.0828023 55.845 -1.81969e-07 
533 1 0.357143 0.107143 0.0416667 55.845 -1.36253e-07 
603 1 0.357143 0.0714286 0 55.845 -4.70128e-08 
541 1 0.321429 0 0.0416667 55.845 -7.85576e-08 
542 1 0.321406 0.0356587 0.0828946 55.845 -1.16741e-07 
543 1 0.357143 0.0357143 0.0416667 55.845 7.83833e-08 
544 1 0.357101 0.0714106 0.0827625 55.845 -1.82381e-07 
602 1 0.321429 0.0357143 0 55.845 -1.49893e-07 
596 1 0.285714 0.0714286 0 55.845 1.26531e-07 
597 1 0.321429 0.107143 0 55.845 1.55393e-07 
612 1 0.464286 0.0357143 0 55.845 -2.98853e-07 
611 1 0.428571 0 0 55.845 9.3937e-08 
610 1 0.464286 0.107143 0 55.845 -9.25413e-08 
609 1 0.428571 0.0714286 0 55.845 -2.03392e-07 
608 1 0.392857 0.0357143 0 55.845 -7.57595e-09 
341 1 0.392833 0.071427 0.208618 55.845 -1.78824e-07 
343 1 0.428572 0.107171 0.208628 55.845 -1.76484e-07 
348 1 0.392782 2.50017e-05 0.208698 55.845 -5.70073e-08 
350 1 0.42857 0.0357358 0.208697 55.845 -4.91437e-08 
352 1 0.464254 0.0714161 0.208654 55.845 -1.08566e-07 
355 1 0.464266 9.44952e-05 0.208544 55.845 -1.45039e-07 
443 1 0.392832 0.0714149 0.125115 55.845 3.03066e-07 
444 1 0.392813 0.107186 0.167031 55.845 4.66635e-08 
445 1 0.428535 0.10718 0.125066 55.845 2.22857e-07 
604 1 0.392857 0.107143 0 55.845 -3.48185e-08 
450 1 0.392812 -2.11601e-06 0.125071 55.845 2.57234e-07 
451 1 0.392804 0.0357277 0.167044 55.845 1.19844e-07 
452 1 0.428553 0.0357178 0.125067 55.845 -7.13992e-08 
453 1 0.42852 0.0714986 0.166927 55.845 2.10103e-07 
454 1 0.4643 0.0714348 0.125047 55.845 -6.25066e-08 
455 1 0.464306 0.107136 0.166967 55.845 1.37768e-07 
456 1 0.428485 7.18483e-05 0.167022 55.845 7.65128e-08 
457 1 0.464286 -1.17562e-05 0.125217 55.845 8.66699e-08 
458 1 0.464217 0.0357563 0.166947 55.845 1.39066e-07 
545 1 0.392857 0.0714286 0.0416667 55.845 -1.81696e-07 
546 1 0.392875 0.107112 0.0827983 55.845 -2.81593e-07 
547 1 0.428571 0.107143 0.0416667 55.845 -2.17176e-07 
552 1 0.392857 0 0.0416667 55.845 2.77938e-08 
553 1 0.392816 0.0357001 0.0828256 55.845 5.57529e-09 
554 1 0.428571 0.0357143 0.0416667 55.845 -1.38759e-07 
555 1 0.428507 0.0714427 0.0826987 55.845 -1.72731e-07 
556 1 0.464286 0.0714286 0.0416667 55.845 -2.24236e-07 
557 1 0.464268 0.107134 0.0827612 55.845 -5.22806e-07 
558 1 0.428586 -1.41208e-05 0.0828462 55.845 -3.2598e-08 
559 1 0.464286 0 0.0416667 55.845 -1.73913e-08 
560 1 0.464248 0.0357074 0.0826991 55.845 -2.35824e-07 
255 1 -1.56944e-05 0.178572 0.208547 55.845 -3.37925e-07 
257 1 0.035677 0.214293 0.208621 55.845 -1.72913e-07 
261 1 0.035784 0.142901 0.208633 55.845 -4.79982e-07 
263 1 0.0713973 0.178544 0.208598 55.845 -1.02087e-07 
265 1 0.107142 0.214321 0.208757 55.845 -8.58262e-08 
273 1 0.107114 0.142818 0.20879 55.845 -1.71664e-07 
357 1 2.86636e-05 0.178552 0.125143 55.845 -9.55617e-08 
358 1 -1.62035e-05 0.214356 0.167009 55.845 1.80473e-07 
359 1 0.0357061 0.214296 0.125105 55.845 -2.08378e-07 
360 1 0.0357161 0.250013 0.16696 55.845 -1.88523e-08 
362 1 -1.04879e-05 0.142913 0.167031 55.845 -1.65548e-07 
363 1 0.0357621 0.142796 0.125144 55.845 2.03373e-07 
364 1 0.0356634 0.178595 0.167119 55.845 -1.07849e-07 
365 1 0.0714271 0.178611 0.125045 55.845 1.93295e-07 
366 1 0.0714162 0.214294 0.16712 55.845 2.06387e-07 
367 1 0.10717 0.214218 0.125053 55.845 2.14432e-07 
368 1 0.107127 0.249952 0.167044 55.845 1.59875e-07 
374 1 0.0715049 0.142821 0.166974 55.845 -2.21513e-08 
375 1 0.107147 0.142905 0.125101 55.845 2.37627e-07 
376 1 0.107087 0.178574 0.167087 55.845 2.38501e-07 
459 1 0 0.178571 0.0416667 55.845 1.40875e-07 
460 1 3.49464e-05 0.214274 0.0827417 55.845 -3.17686e-07 
461 1 0.0357143 0.214286 0.0416667 55.845 -6.14438e-08 
462 1 0.0356861 0.250025 0.0827196 55.845 -3.78712e-07 
464 1 8.82062e-05 0.14286 0.0828079 55.845 -1.93359e-07 
465 1 0.0357143 0.142857 0.0416667 55.845 -7.07017e-08 
466 1 0.0356743 0.178486 0.0826991 55.845 -3.52868e-07 
467 1 0.0714286 0.178571 0.0416667 55.845 -1.75271e-07 
468 1 0.071418 0.214266 0.0827824 55.845 -2.75059e-07 
469 1 0.107143 0.214286 0.0416667 55.845 -1.36715e-07 
470 1 0.107053 0.249916 0.0827544 55.845 -1.40323e-07 
476 1 0.0714547 0.142905 0.0827689 55.845 -2.56783e-07 
477 1 0.107143 0.142857 0.0416667 55.845 -1.66297e-07 
478 1 0.10716 0.178624 0.0827265 55.845 -1.77824e-07 
561 1 0 0.214286 0 55.845 4.67966e-07 
562 1 0.0357143 0.25 0 55.845 -9.17982e-08 
563 1 0 0.142857 0 55.845 -9.47921e-08 
564 1 0.0357143 0.178571 0 55.845 5.48653e-08 
565 1 0.0714286 0.214286 0 55.845 -6.34176e-08 
566 1 0.107143 0.25 0 55.845 -1.25378e-07 
569 1 0.0714286 0.142857 0 55.845 1.543e-07 
570 1 0.107143 0.178571 0 55.845 -1.77172e-07 
275 1 0.142834 0.17858 0.208656 55.845 -1.78186e-07 
277 1 0.178623 0.214267 0.208584 55.845 -4.58979e-07 
287 1 0.17853 0.142929 0.208684 55.845 -1.04595e-07 
289 1 0.214291 0.178652 0.20868 55.845 -1.21134e-07 
291 1 0.250009 0.214331 0.20866 55.845 2.21443e-07 
301 1 0.249992 0.142876 0.208589 55.845 -1.37528e-07 
377 1 0.142813 0.178575 0.125164 55.845 -4.02811e-08 
378 1 0.142904 0.214302 0.167125 55.845 -5.02487e-08 
379 1 0.178571 0.214294 0.125126 55.845 -1.37379e-07 
388 1 0.142796 0.142875 0.166968 55.845 1.36596e-07 
389 1 0.178642 0.142874 0.125206 55.845 1.313e-07 
390 1 0.178519 0.17856 0.167084 55.845 1.40664e-07 
391 1 0.214299 0.17849 0.125228 55.845 1.68616e-07 
392 1 0.214315 0.21427 0.166987 55.845 4.45827e-08 
393 1 0.250024 0.214311 0.12511 55.845 -5.85643e-08 
402 1 0.214265 0.142873 0.167101 55.845 3.56012e-08 
403 1 0.24999 0.142867 0.125165 55.845 1.65501e-07 
404 1 0.250003 0.178588 0.167034 55.845 -1.07132e-07 
479 1 0.142857 0.178571 0.0416667 55.845 -1.03194e-07 
480 1 0.142872 0.214278 0.0828002 55.845 -2.82879e-07 
481 1 0.178571 0.214286 0.0416667 55.845 2.2072e-07 
490 1 0.142896 0.1429 0.0827568 55.845 -1.32891e-07 
491 1 0.178571 0.142857 0.0416667 55.845 1.63638e-07 
492 1 0.178645 0.178588 0.0827472 55.845 -1.86041e-07 
493 1 0.214286 0.178571 0.0416667 55.845 6.63698e-08 
494 1 0.214261 0.214314 0.0828019 55.845 -1.91009e-07 
495 1 0.25 0.214286 0.0416667 55.845 -1.37918e-07 
504 1 0.214332 0.142862 0.0827466 55.845 1.12605e-07 
505 1 0.25 0.142857 0.0416667 55.845 -1.12745e-07 
506 1 0.249955 0.178661 0.0827851 55.845 -4.22415e-07 
571 1 0.142857 0.214286 0 55.845 7.12262e-08 
576 1 0.142857 0.142857 0 55.845 -1.76712e-07 
577 1 0.178571 0.178571 0 55.845 1.22368e-07 
578 1 0.214286 0.214286 0 55.845 8.2113e-08 
583 1 0.214286 0.142857 0 55.845 -3.9439e-08 
584 1 0.25 0.178571 0 55.845 -6.69488e-08 
303 1 0.285706 0.178642 0.208547 55.845 -2.01336e-07 
305 1 0.321388 0.214277 0.208616 55.845 -2.09524e-07 
315 1 0.321404 0.142797 0.208688 55.845 -5.05666e-07 
317 1 0.35706 0.178545 0.208648 55.845 -2.07652e-07 
405 1 0.285734 0.178572 0.125034 55.845 -2.43777e-07 
406 1 0.285668 0.214262 0.166961 55.845 -1.56428e-08 
407 1 0.321401 0.214289 0.125099 55.845 1.39542e-07 
416 1 0.285757 0.142919 0.167015 55.845 7.141e-09 
417 1 0.321453 0.142854 0.124933 55.845 5.00275e-08 
418 1 0.321395 0.178538 0.166983 55.845 2.46551e-07 
419 1 0.357176 0.178586 0.12518 55.845 1.47643e-07 
420 1 0.357111 0.214302 0.167069 55.845 9.2389e-08 
432 1 0.357158 0.142829 0.167034 55.845 4.68974e-08 
507 1 0.285714 0.178571 0.0416667 55.845 -1.13991e-07 
508 1 0.285672 0.214313 0.0826856 55.845 -2.73536e-07 
509 1 0.321429 0.214286 0.0416667 55.845 1.22538e-07 
518 1 0.285729 0.142798 0.0826956 55.845 -3.96619e-07 
519 1 0.321429 0.142857 0.0416667 55.845 -1.56147e-08 
520 1 0.321441 0.178598 0.0827459 55.845 -2.13693e-07 
521 1 0.357143 0.178571 0.0416667 55.845 5.44145e-08 
522 1 0.357101 0.214254 0.0827751 55.845 -8.26203e-08 
534 1 0.357105 0.142761 0.0827372 55.845 -4.04945e-07 
585 1 0.285714 0.214286 0 55.845 3.4245e-08 
590 1 0.285714 0.142857 0 55.845 1.46705e-07 
591 1 0.321429 0.178571 0 55.845 1.79275e-07 
592 1 0.357143 0.214286 0 55.845 -6.28662e-08 
598 1 0.357143 0.142857 0 55.845 1.15544e-07 
319 1 0.392843 0.214303 0.208653 55.845 -6.37361e-08 
321 1 0.428599 0.249991 0.208724 55.845 -7.59117e-08 
331 1 0.392899 0.142841 0.20864 55.845 -1.44445e-07 
333 1 0.428597 0.178563 0.208662 55.845 -2.196e-07 
335 1 0.464366 0.214313 0.208614 55.845 -7.09435e-08 
345 1 0.464288 0.142907 0.208519 55.845 -2.28273e-07 
606 1 0.464286 0.178571 0 55.845 1.34839e-07 
421 1 0.392819 0.21431 0.125197 55.845 7.59758e-08 
422 1 0.392868 0.249967 0.167092 55.845 4.81748e-08 
423 1 0.428516 0.249954 0.125045 55.845 -1.35921e-07 
433 1 0.392824 0.142897 0.125072 55.845 5.65938e-08 
434 1 0.392832 0.178654 0.16714 55.845 2.89711e-07 
435 1 0.428504 0.178556 0.125154 55.845 -2.40837e-08 
436 1 0.428623 0.214323 0.167086 55.845 1.95264e-07 
437 1 0.464325 0.214339 0.125225 55.845 -7.98399e-08 
605 1 0.428571 0.142857 0 55.845 1.21234e-07 
446 1 0.428577 0.142878 0.166987 55.845 9.4809e-08 
447 1 0.464283 0.142846 0.125061 55.845 -4.36846e-09 
448 1 0.464302 0.178594 0.16698 55.845 -9.1097e-08 
523 1 0.392857 0.214286 0.0416667 55.845 1.52835e-07 
524 1 0.3928 0.250038 0.0827519 55.845 -1.87571e-07 
525 1 0.428571 0.25 0.0416667 55.845 2.63912e-07 
535 1 0.392857 0.142857 0.0416667 55.845 -1.64734e-07 
536 1 0.392848 0.178579 0.0828029 55.845 -2.38923e-07 
537 1 0.428571 0.178571 0.0416667 55.845 8.18036e-08 
538 1 0.428548 0.214254 0.082883 55.845 -1.71462e-07 
539 1 0.464286 0.214286 0.0416667 55.845 1.09608e-07 
548 1 0.428532 0.142839 0.0828244 55.845 -3.38125e-07 
549 1 0.464286 0.142857 0.0416667 55.845 1.32088e-07 
550 1 0.464245 0.178545 0.0828151 55.845 -4.70908e-07 
593 1 0.392857 0.25 0 55.845 5.63255e-08 
599 1 0.392857 0.178571 0 55.845 -6.31758e-08 
600 1 0.428571 0.214286 0 55.845 -1.19195e-07 
3 1 6.34749e-05 0.107231 0.458618 55.845 -1.11179e-08 
7 1 -9.05955e-06 0.0357843 0.458497 55.845 -2.54368e-07 
8 1 0.0357053 0.07137 0.458624 55.845 -1.71908e-08 
9 1 0.0714061 0.10715 0.458563 55.845 -1.7932e-07 
13 1 0.0357663 -7.74607e-05 0.458455 55.845 -3.07639e-07 
14 1 0.0714016 0.035728 0.458583 55.845 -2.60858e-07 
15 1 0.10713 0.0714747 0.458611 55.845 -2.08454e-07 
20 1 0.107229 7.14494e-06 0.458583 55.845 -3.59801e-07 
55 1 3.31966e-05 0.107151 0.375419 55.845 6.92114e-08 
63 1 -3.65261e-05 0.03578 0.375386 55.845 5.91508e-08 
64 1 5.68545e-05 0.0715304 0.416522 55.845 -1.69812e-07 
65 1 0.0358322 0.0715017 0.375508 55.845 1.71233e-07 
66 1 0.0357446 0.107203 0.416558 55.845 -1.68109e-07 
67 1 0.0714421 0.107165 0.375442 55.845 2.73624e-07 
74 1 6.42823e-05 4.59861e-05 0.416415 55.845 -2.23853e-07 
75 1 0.0357608 -3.56107e-06 0.375405 55.845 1.8455e-07 
76 1 0.0356947 0.0357064 0.416485 55.845 -2.39128e-07 
77 1 0.0714367 0.0357472 0.375471 55.845 2.88248e-07 
78 1 0.0714058 0.0714694 0.416661 55.845 -2.52305e-07 
79 1 0.107131 0.0713856 0.375484 55.845 -1.01868e-07 
80 1 0.107122 0.107155 0.416512 55.845 -3.72392e-07 
88 1 0.0714614 3.88147e-05 0.416543 55.845 -2.57259e-07 
89 1 0.107162 -8.27057e-06 0.37547 55.845 2.1292e-07 
90 1 0.10715 0.0357679 0.416547 55.845 -5.48991e-07 
157 1 3.01118e-05 0.107171 0.293125 55.845 -8.06426e-08 
165 1 4.7709e-05 0.0358089 0.2931 55.845 -1.59762e-07 
166 1 5.40857e-05 0.0714574 0.334646 55.845 1.30194e-07 
167 1 0.0357097 0.0714732 0.293107 55.845 -2.74161e-07 
168 1 0.0358096 0.107178 0.334479 55.845 2.80554e-07 
169 1 0.0714241 0.107158 0.29306 55.845 -1.87038e-07 
176 1 4.71414e-05 6.19963e-05 0.334466 55.845 2.27588e-07 
177 1 0.0357781 6.72347e-05 0.293067 55.845 5.45232e-08 
178 1 0.0357541 0.0357772 0.334563 55.845 1.21789e-07 
179 1 0.0714177 0.0356918 0.293015 55.845 -1.89999e-07 
180 1 0.0714916 0.0714537 0.334535 55.845 2.71769e-07 
181 1 0.107074 0.0713993 0.293079 55.845 -2.41034e-07 
182 1 0.107189 0.107172 0.334527 55.845 1.13758e-07 
190 1 0.0714063 7.86702e-05 0.3346 55.845 4.25553e-07 
191 1 0.107114 9.45289e-05 0.293014 55.845 -2.19632e-07 
192 1 0.107193 0.0356435 0.334676 55.845 3.02571e-07 
268 1 -4.15236e-05 0.0714722 0.25074 55.845 -1.17822e-08 
270 1 0.0357268 0.107154 0.25072 55.845 1.57752e-07 
278 1 5.10889e-05 8.41114e-05 0.250701 55.845 1.61332e-07 
280 1 0.0357075 0.0357595 0.250705 55.845 -3.69082e-07 
282 1 0.071387 0.0715098 0.250718 55.845 1.74087e-07 
284 1 0.107155 0.107141 0.250654 55.845 -1.7947e-08 
292 1 0.0714362 6.6481e-05 0.250702 55.845 3.33836e-08 
294 1 0.107155 0.0357616 0.250691 55.845 1.68324e-07 
16 1 0.142862 0.107154 0.458542 55.845 -4.73317e-07 
21 1 0.142901 0.0356845 0.458502 55.845 8.30005e-09 
22 1 0.178565 0.0714165 0.458617 55.845 -2.5757e-07 
23 1 0.214271 0.107118 0.458532 55.845 -4.59755e-07 
27 1 0.178613 -6.81596e-05 0.458466 55.845 -2.04986e-07 
28 1 0.214247 0.035665 0.458489 55.845 -1.77371e-08 
29 1 0.249971 0.0713896 0.458562 55.845 -4.10258e-07 
81 1 0.142873 0.107151 0.375323 55.845 2.55647e-07 
91 1 0.142827 0.035706 0.375471 55.845 1.68921e-07 
92 1 0.142898 0.0714512 0.41655 55.845 -2.20187e-07 
93 1 0.178504 0.0714281 0.375386 55.845 7.61456e-08 
94 1 0.178581 0.10718 0.416389 55.845 -2.04216e-07 
95 1 0.214301 0.107136 0.375353 55.845 2.78511e-07 
102 1 0.142911 -9.31502e-07 0.416484 55.845 -9.19987e-08 
103 1 0.178548 6.38489e-05 0.375412 55.845 1.8587e-07 
104 1 0.178596 0.0357189 0.416533 55.845 -1.9139e-07 
105 1 0.214292 0.0357495 0.375353 55.845 5.52065e-08 
106 1 0.214265 0.0714244 0.41649 55.845 -4.27692e-07 
107 1 0.249999 0.0714371 0.375452 55.845 -1.91578e-07 
108 1 0.249979 0.107157 0.416565 55.845 -1.28781e-07 
118 1 0.214245 -1.9043e-06 0.416422 55.845 -1.89793e-07 
120 1 0.250012 0.0357392 0.416476 55.845 -3.48532e-07 
183 1 0.142823 0.107159 0.292979 55.845 -3.20275e-07 
193 1 0.142862 0.0357504 0.293129 55.845 -1.02197e-07 
194 1 0.142779 0.0714937 0.33451 55.845 1.36302e-07 
195 1 0.178576 0.0714381 0.293109 55.845 3.71978e-08 
196 1 0.178556 0.107212 0.334569 55.845 6.31358e-08 
197 1 0.21428 0.107118 0.293026 55.845 -2.15442e-07 
204 1 0.142896 3.75865e-06 0.334577 55.845 -3.43049e-07 
205 1 0.178526 0.000103742 0.293037 55.845 -1.23738e-07 
206 1 0.178519 0.0357415 0.3346 55.845 2.82386e-07 
207 1 0.214306 0.0357488 0.293183 55.845 1.72273e-07 
208 1 0.214231 0.0714788 0.334596 55.845 2.67706e-07 
209 1 0.24995 0.0714349 0.292942 55.845 3.52185e-09 
210 1 0.249959 0.107118 0.334475 55.845 -6.85521e-08 
220 1 0.214253 0.000107373 0.33447 55.845 3.05167e-07 
222 1 0.249964 0.0357465 0.33446 55.845 3.16077e-07 
296 1 0.142839 0.0715005 0.250778 55.845 1.25546e-07 
298 1 0.178514 0.107152 0.250707 55.845 1.30564e-07 
306 1 0.142751 5.72539e-05 0.250752 55.845 1.9802e-07 
308 1 0.17856 0.0357344 0.250667 55.845 1.23421e-07 
310 1 0.214207 0.0713841 0.250742 55.845 2.16185e-08 
312 1 0.249963 0.107057 0.250571 55.845 2.19843e-07 
322 1 0.214285 -6.11658e-06 0.250851 55.845 2.54842e-07 
324 1 0.249992 0.0357248 0.250676 55.845 -1.91419e-08 
30 1 0.285746 0.107163 0.458685 55.845 -3.72187e-07 
35 1 0.249972 3.99883e-05 0.45855 55.845 -3.86962e-07 
36 1 0.285674 0.0357081 0.458626 55.845 -2.01199e-07 
37 1 0.321387 0.0714798 0.458697 55.845 -4.25553e-07 
38 1 0.357141 0.107103 0.458541 55.845 -2.535e-07 
42 1 0.321296 -5.1681e-05 0.458562 55.845 -3.40085e-07 
43 1 0.357112 0.0356774 0.458551 55.845 -3.78361e-08 
109 1 0.285709 0.107164 0.375338 55.845 1.61332e-07 
119 1 0.249932 2.4535e-05 0.375405 55.845 3.39275e-07 
121 1 0.285704 0.0356957 0.375424 55.845 7.39911e-08 
122 1 0.285728 0.0714702 0.416579 55.845 -5.97128e-07 
123 1 0.321367 0.0714079 0.375446 55.845 1.27327e-07 
124 1 0.321411 0.107123 0.416493 55.845 -2.78297e-07 
125 1 0.357088 0.107138 0.375442 55.845 -1.66925e-07 
133 1 0.321412 -3.72021e-05 0.375367 55.845 1.30317e-07 
134 1 0.321367 0.0356567 0.416554 55.845 -9.58955e-08 
135 1 0.357079 0.0356717 0.375492 55.845 2.53327e-07 
136 1 0.357094 0.0714163 0.416541 55.845 -3.21198e-07 
211 1 0.285635 0.107119 0.293023 55.845 2.09909e-07 
221 1 0.25004 -1.15104e-06 0.29308 55.845 3.94788e-08 
223 1 0.285687 0.0356518 0.292937 55.845 -1.70027e-07 
224 1 0.285662 0.0714218 0.334536 55.845 8.54626e-08 
225 1 0.32136 0.0713891 0.293007 55.845 -6.31601e-08 
226 1 0.321336 0.107083 0.33454 55.845 2.36752e-07 
227 1 0.357082 0.107141 0.293174 55.845 -2.2251e-07 
235 1 0.321348 1.95967e-06 0.293128 55.845 -9.77507e-08 
236 1 0.321394 0.0356988 0.33449 55.845 1.48823e-07 
237 1 0.357145 0.0357213 0.293009 55.845 -1.24927e-07 
238 1 0.357039 0.0713687 0.334543 55.845 2.1629e-07 
326 1 0.285688 0.0713875 0.250791 55.845 2.39585e-07 
328 1 0.321351 0.107142 0.250701 55.845 1.83907e-07 
338 1 0.321516 0.035738 0.250784 55.845 -6.88465e-08 
340 1 0.357135 0.071433 0.250782 55.845 1.52377e-07 
44 1 0.392817 0.0714371 0.458592 55.845 -2.85154e-07 
45 1 0.428564 0.107094 0.458427 55.845 -4.6627e-07 
47 1 0.392857 3.76056e-05 0.458566 55.845 -1.06243e-07 
48 1 0.428527 0.0357375 0.458643 55.845 -2.53954e-07 
49 1 0.464194 0.0714398 0.458675 55.845 -1.17798e-07 
50 1 0.46424 4.46058e-05 0.458697 55.845 -1.28336e-07 
137 1 0.392785 0.071385 0.375402 55.845 1.19752e-07 
138 1 0.392774 0.107172 0.416652 55.845 -1.80094e-07 
139 1 0.428525 0.107122 0.375333 55.845 -1.94426e-08 
144 1 0.392818 -8.378e-06 0.37542 55.845 -1.92329e-07 
145 1 0.392846 0.0357151 0.416488 55.845 -6.33313e-07 
146 1 0.428547 0.0357134 0.375362 55.845 2.60724e-07 
147 1 0.428587 0.0714583 0.416471 55.845 -3.97946e-07 
148 1 0.464249 0.0713796 0.375473 55.845 1.55988e-07 
149 1 0.464321 0.107116 0.416578 55.845 -1.34607e-07 
150 1 0.428515 8.43797e-05 0.416462 55.845 -6.34671e-07 
151 1 0.464306 3.31092e-05 0.375393 55.845 1.99369e-07 
152 1 0.464228 0.035738 0.416516 55.845 1.76241e-07 
239 1 0.39282 0.0714382 0.293067 55.845 3.90372e-08 
240 1 0.392831 0.107116 0.334477 55.845 -1.70048e-07 
241 1 0.428607 0.107139 0.292958 55.845 2.16041e-07 
246 1 0.392803 2.86086e-05 0.293071 55.845 -2.3323e-07 
247 1 0.392814 0.0356725 0.334561 55.845 3.23741e-07 
248 1 0.428557 0.0357932 0.293139 55.845 -1.23406e-07 
249 1 0.428509 0.0714348 0.334544 55.845 2.25909e-07 
250 1 0.464238 0.071358 0.293072 55.845 -1.87501e-08 
251 1 0.464275 0.107148 0.334499 55.845 1.1227e-07 
252 1 0.428505 6.73867e-05 0.334371 55.845 1.65574e-07 
253 1 0.464199 1.0648e-05 0.293051 55.845 2.04002e-08 
254 1 0.464258 0.0357357 0.334597 55.845 3.67383e-07 
342 1 0.392851 0.107131 0.250723 55.845 3.64763e-07 
349 1 0.392864 0.0357713 0.250781 55.845 2.11165e-07 
351 1 0.428559 0.0713902 0.250866 55.845 2.10137e-07 
353 1 0.46429 0.107112 0.250657 55.845 2.39527e-07 
354 1 0.428489 3.1468e-05 0.250754 55.845 -2.72177e-08 
356 1 0.464292 0.035709 0.250761 55.845 1.26428e-07 
1 1 9.34983e-06 0.178587 0.458481 55.845 -4.96902e-07 
2 1 0.0357227 0.21426 0.458704 55.845 -1.96341e-08 
4 1 0.035669 0.142865 0.458616 55.845 -6.07736e-07 
5 1 0.0713784 0.178596 0.458535 55.845 -8.22234e-08 
6 1 0.107106 0.214298 0.458664 55.845 -4.76109e-07 
10 1 0.107123 0.142922 0.45845 55.845 -1.04768e-07 
51 1 -1.22204e-05 0.178562 0.375306 55.845 4.03909e-07 
52 1 -1.18915e-05 0.214325 0.416495 55.845 -2.60245e-07 
53 1 0.0356138 0.214263 0.375437 55.845 2.65061e-07 
54 1 0.0357478 0.250006 0.41654 55.845 -3.22483e-07 
56 1 -2.03111e-05 0.142906 0.416536 55.845 -3.36105e-07 
57 1 0.0357084 0.14282 0.37533 55.845 2.48538e-07 
58 1 0.0356921 0.178598 0.416536 55.845 -2.85377e-07 
59 1 0.0713592 0.178678 0.375444 55.845 2.27111e-08 
60 1 0.0713851 0.214253 0.416629 55.845 -2.06839e-07 
61 1 0.107087 0.214275 0.375421 55.845 1.66075e-07 
62 1 0.107121 0.249966 0.416533 55.845 -3.09692e-07 
68 1 0.0714056 0.142885 0.41653 55.845 -2.60005e-07 
69 1 0.107171 0.142911 0.375501 55.845 -1.03983e-07 
70 1 0.107098 0.17854 0.416468 55.845 -4.12664e-07 
153 1 -2.36584e-05 0.178586 0.293113 55.845 3.05106e-07 
154 1 -3.16345e-05 0.214256 0.334452 55.845 4.52457e-07 
155 1 0.0357275 0.214329 0.292974 55.845 -1.73647e-07 
156 1 0.0356574 0.249993 0.334525 55.845 2.25141e-07 
158 1 -1.71168e-05 0.142905 0.334621 55.845 4.41774e-07 
159 1 0.0357183 0.14287 0.293005 55.845 8.70177e-08 
160 1 0.035756 0.17856 0.334423 55.845 3.17759e-07 
161 1 0.0714162 0.178572 0.292976 55.845 -2.20425e-09 
162 1 0.0713306 0.214226 0.334513 55.845 8.92615e-08 
163 1 0.107098 0.214264 0.293057 55.845 7.16523e-08 
164 1 0.107091 0.24997 0.334458 55.845 2.25662e-07 
170 1 0.0714444 0.142922 0.334581 55.845 3.68979e-08 
171 1 0.107132 0.142858 0.29307 55.845 9.65634e-08 
172 1 0.107065 0.178547 0.334466 55.845 1.84575e-07 
256 1 -6.82894e-05 0.214256 0.250717 55.845 9.25699e-08 
258 1 0.035653 0.250057 0.250704 55.845 1.75351e-07 
260 1 -8.75217e-06 0.142898 0.250719 55.845 8.19092e-08 
262 1 0.0357015 0.178571 0.250653 55.845 9.9311e-09 
264 1 0.0714373 0.214254 0.250712 55.845 1.8912e-07 
266 1 0.107086 0.250011 0.250824 55.845 2.84139e-07 
272 1 0.0714335 0.142892 0.250792 55.845 1.72088e-07 
274 1 0.107176 0.178548 0.250717 55.845 3.31576e-07 
11 1 0.14287 0.178575 0.458584 55.845 -1.14597e-07 
12 1 0.178537 0.21424 0.458476 55.845 -1.3964e-07 
17 1 0.178544 0.142886 0.458683 55.845 -4.81657e-07 
18 1 0.21426 0.178523 0.45853 55.845 1.41143e-07 
19 1 0.250061 0.214307 0.458529 55.845 -3.25973e-07 
24 1 0.249985 0.14285 0.458593 55.845 -4.61433e-07 
71 1 0.142831 0.178573 0.375357 55.845 -2.82504e-08 
72 1 0.142787 0.214274 0.416597 55.845 -5.42404e-07 
73 1 0.178557 0.214269 0.375399 55.845 1.62315e-07 
82 1 0.142841 0.142836 0.416527 55.845 -1.03341e-07 
83 1 0.178579 0.142895 0.375408 55.845 1.52191e-07 
84 1 0.178568 0.178583 0.416437 55.845 -5.04955e-07 
85 1 0.214319 0.178543 0.375381 55.845 -6.58587e-08 
86 1 0.214267 0.214344 0.416357 55.845 -1.81423e-07 
87 1 0.250066 0.214251 0.375374 55.845 3.78059e-07 
96 1 0.214237 0.142772 0.416513 55.845 -1.85144e-07 
97 1 0.249952 0.142871 0.37546 55.845 1.89227e-07 
98 1 0.250023 0.178504 0.416443 55.845 -4.43298e-07 
173 1 0.142823 0.178596 0.293098 55.845 1.1466e-07 
174 1 0.1428 0.214389 0.334537 55.845 2.85516e-07 
175 1 0.178528 0.214323 0.293007 55.845 -2.25791e-07 
184 1 0.14283 0.142838 0.334524 55.845 1.21821e-07 
185 1 0.178584 0.142839 0.293131 55.845 -2.29545e-08 
186 1 0.178531 0.17862 0.334527 55.845 3.36617e-07 
187 1 0.214203 0.178563 0.293037 55.845 -1.1756e-07 
188 1 0.214309 0.214279 0.334542 55.845 3.87149e-07 
189 1 0.250004 0.214284 0.292998 55.845 -3.22106e-07 
198 1 0.214277 0.142863 0.334498 55.845 8.87024e-08 
199 1 0.249939 0.14282 0.292999 55.845 1.32031e-07 
200 1 0.249944 0.178583 0.334433 55.845 1.64549e-07 
276 1 0.142791 0.214241 0.250718 55.845 -3.7033e-08 
286 1 0.142859 0.142901 0.25076 55.845 1.77288e-07 
288 1 0.178567 0.178554 0.250727 55.845 -1.09015e-07 
290 1 0.21422 0.214283 0.250774 55.845 -2.25744e-08 
300 1 0.214299 0.142862 0.250768 55.845 1.58776e-07 
302 1 0.250077 0.178591 0.250713 55.845 1.98859e-07 
25 1 0.285706 0.178533 0.458613 55.845 1.14129e-07 
26 1 0.32138 0.214192 0.458481 55.845 7.72583e-08 
31 1 0.321343 0.142782 0.458552 55.845 -1.92405e-07 
32 1 0.357156 0.178541 0.458572 55.845 -5.23354e-07 
99 1 0.285689 0.178541 0.37536 55.845 1.48374e-07 
100 1 0.285737 0.214264 0.416414 55.845 -2.1421e-07 
101 1 0.321394 0.214226 0.375331 55.845 3.03092e-07 
110 1 0.285644 0.14282 0.416504 55.845 -5.02256e-07 
111 1 0.321359 0.142789 0.37533 55.845 -8.01725e-08 
112 1 0.321381 0.17854 0.416365 55.845 -3.70078e-07 
113 1 0.357111 0.17854 0.375284 55.845 3.45148e-07 
114 1 0.357148 0.214232 0.416349 55.845 -4.18155e-07 
126 1 0.357129 0.142883 0.416524 55.845 -1.49245e-07 
201 1 0.285758 0.178598 0.293042 55.845 -1.67695e-07 
202 1 0.285681 0.21425 0.334488 55.845 3.73909e-07 
203 1 0.321455 0.214322 0.29307 55.845 -6.73096e-09 
212 1 0.285618 0.142867 0.334404 55.845 3.20608e-07 
213 1 0.32142 0.142832 0.292976 55.845 -7.25085e-09 
214 1 0.321406 0.178509 0.33439 55.845 5.40458e-07 