ITEM: TIMESTEP
9600
ITEM: NUMBER OF ATOMS
5880
ITEM: BOX BOUNDS pp pp ff
-27.9699 27.9699
-27.9699 27.9699
0 34.092
ITEM: ATOMS id type xs ys zs mass q 
259 1 -0.000155324 0.107108 0.208369 55.845 2.52699e-07 
267 1 -0.000158926 0.0357082 0.208676 55.845 7.65094e-08 
269 1 0.0356008 0.0715306 0.208542 55.845 5.37481e-08 
271 1 0.0713611 0.107172 0.208715 55.845 3.90632e-08 
279 1 0.0356613 -2.01471e-05 0.208737 55.845 3.68179e-09 
281 1 0.0713394 0.035785 0.208767 55.845 6.73939e-08 
283 1 0.1071 0.071441 0.208668 55.845 1.05635e-07 
293 1 0.107244 -5.99522e-05 0.209055 55.845 2.36549e-07 
361 1 -2.2019e-05 0.107195 0.122618 55.845 2.37948e-08 
369 1 -9.48091e-05 0.0356909 0.122931 55.845 -2.18643e-07 
370 1 -3.41986e-05 0.0713391 0.1652 55.845 -2.75234e-08 
371 1 0.0356007 0.0714392 0.122907 55.845 -1.71469e-07 
372 1 0.0356366 0.107091 0.165397 55.845 -2.24458e-08 
373 1 0.0714293 0.107212 0.122901 55.845 -2.0749e-07 
380 1 -7.41682e-05 9.85369e-05 0.165504 55.845 2.63801e-07 
381 1 0.0356177 3.26854e-05 0.123046 55.845 -3.77943e-07 
382 1 0.0357417 0.0356789 0.165477 55.845 1.61644e-07 
383 1 0.0712837 0.0357658 0.123094 55.845 -2.81229e-07 
384 1 0.0713961 0.0713896 0.165442 55.845 1.38069e-07 
385 1 0.107072 0.0714435 0.122997 55.845 -1.90935e-07 
386 1 0.107143 0.10708 0.165431 55.845 1.73181e-07 
394 1 0.0714201 2.25763e-05 0.165391 55.845 1.8866e-07 
395 1 0.107184 -4.03441e-05 0.122906 55.845 -1.08326e-07 
396 1 0.107188 0.0355987 0.16555 55.845 5.73641e-08 
463 1 0 0.107143 0.0416667 55.845 -3.1723e-07 
471 1 0 0.0357143 0.0416667 55.845 -3.06118e-07 
472 1 -1.43577e-05 0.0714202 0.0820953 55.845 3.77592e-07 
473 1 0.0357143 0.0714286 0.0416667 55.845 -3.23939e-07 
474 1 0.0358315 0.107223 0.0821464 55.845 2.73982e-07 
475 1 0.0714286 0.107143 0.0416667 55.845 -3.55711e-07 
482 1 -9.58931e-05 -7.85594e-05 0.0822425 55.845 4.16775e-07 
483 1 0.0357143 0 0.0416667 55.845 -3.83391e-07 
484 1 0.0356723 0.0357494 0.0820459 55.845 4.36822e-07 
485 1 0.0714286 0.0357143 0.0416667 55.845 -3.6486e-07 
486 1 0.0713134 0.0714975 0.0822184 55.845 3.63923e-07 
487 1 0.107143 0.0714286 0.0416667 55.845 -3.39445e-07 
488 1 0.107096 0.1071 0.0822413 55.845 2.6929e-07 
496 1 0.0714492 0.000124099 0.0821778 55.845 4.35041e-07 
497 1 0.107143 0 0.0416667 55.845 -3.36268e-07 
498 1 0.107028 0.0357784 0.0820896 55.845 3.00744e-07 
567 1 0 0.0714286 0 55.845 9.09512e-08 
568 1 0.0357143 0.107143 0 55.845 -2.56377e-08 
572 1 0 0 0 55.845 1.26666e-07 
573 1 0.0357143 0.0357143 0 55.845 1.15691e-07 
574 1 0.0714286 0.0714286 0 55.845 1.23211e-08 
575 1 0.107143 0.107143 0 55.845 -9.64912e-10 
579 1 0.0714286 0 0 55.845 5.76493e-08 
580 1 0.107143 0.0357143 0 55.845 -1.40926e-08 
285 1 0.142821 0.106979 0.208605 55.845 7.81173e-08 
295 1 0.142789 0.0356762 0.20904 55.845 3.62316e-07 
297 1 0.178534 0.0714738 0.208661 55.845 2.35093e-07 
299 1 0.214217 0.107053 0.208761 55.845 1.97156e-07 
307 1 0.178512 6.83573e-05 0.208977 55.845 3.99276e-07 
309 1 0.214259 0.0358673 0.208809 55.845 3.01158e-07 
311 1 0.249935 0.0714594 0.208702 55.845 2.30208e-07 
387 1 0.142896 0.10715 0.122793 55.845 -1.33732e-07 
397 1 0.14263 0.0357394 0.122958 55.845 2.49652e-08 
398 1 0.14278 0.0713451 0.165362 55.845 4.73234e-08 
399 1 0.178465 0.071492 0.122902 55.845 -1.91874e-08 
400 1 0.178706 0.107209 0.165256 55.845 8.37525e-08 
401 1 0.214346 0.107115 0.122761 55.845 -1.8682e-07 
408 1 0.14295 0.000131292 0.165362 55.845 -1.37963e-07 
409 1 0.178579 -6.79065e-06 0.122857 55.845 2.39505e-07 
410 1 0.178438 0.0357399 0.165428 55.845 -1.90789e-07 
411 1 0.214196 0.0357158 0.122925 55.845 1.12387e-07 
412 1 0.21425 0.0713477 0.165311 55.845 7.45248e-10 
413 1 0.24998 0.0713424 0.122774 55.845 -1.10044e-07 
414 1 0.249826 0.107106 0.165465 55.845 1.02e-07 
424 1 0.214225 4.715e-05 0.165567 55.845 -2.59719e-07 
426 1 0.250034 0.0357272 0.165373 55.845 -7.16462e-08 
489 1 0.142857 0.107143 0.0416667 55.845 -2.1799e-07 
499 1 0.142857 0.0357143 0.0416667 55.845 -3.31909e-07 
500 1 0.142713 0.0714122 0.0821216 55.845 2.80896e-07 
501 1 0.178571 0.0714286 0.0416667 55.845 -2.93541e-07 
502 1 0.178629 0.107183 0.08208 55.845 2.96304e-07 
503 1 0.214286 0.107143 0.0416667 55.845 -3.14119e-07 
510 1 0.142875 0.000103581 0.0823126 55.845 2.0522e-07 
511 1 0.178571 0 0.0416667 55.845 -2.47457e-07 
512 1 0.178549 0.0357105 0.082376 55.845 1.72788e-07 
513 1 0.214286 0.0357143 0.0416667 55.845 -2.9897e-07 
514 1 0.214236 0.0714328 0.0821552 55.845 3.03642e-07 
515 1 0.25 0.0714286 0.0416667 55.845 -3.80229e-07 
516 1 0.249993 0.107071 0.0821724 55.845 2.72686e-07 
526 1 0.214329 7.38165e-05 0.0823502 55.845 1.22029e-07 
528 1 0.250059 0.0356624 0.0820327 55.845 3.11227e-07 
581 1 0.142857 0.0714286 0 55.845 1.737e-08 
582 1 0.178571 0.107143 0 55.845 1.02675e-07 
586 1 0.142857 0 0 55.845 -1.04239e-07 
587 1 0.178571 0.0357143 0 55.845 -1.85384e-08 
588 1 0.214286 0.0714286 0 55.845 7.18543e-08 
589 1 0.25 0.107143 0 55.845 3.24263e-08 
594 1 0.214286 0 0 55.845 -1.01374e-07 
595 1 0.25 0.0357143 0 55.845 2.80714e-08 
313 1 0.285734 0.107104 0.208901 55.845 1.37645e-07 
323 1 0.249817 0.0001373 0.208824 55.845 2.83941e-07 
325 1 0.285632 0.0356198 0.208761 55.845 1.66778e-07 
327 1 0.321438 0.0714091 0.208784 55.845 7.25644e-08 
329 1 0.357171 0.107079 0.208915 55.845 -6.45538e-08 
337 1 0.321494 -1.19893e-05 0.208737 55.845 1.65608e-07 
339 1 0.357282 0.0356849 0.208508 55.845 8.08679e-08 
415 1 0.285791 0.107168 0.123066 55.845 -2.72179e-07 
425 1 0.249946 -1.01105e-05 0.123113 55.845 1.01507e-07 
427 1 0.285767 0.0358333 0.122909 55.845 -6.09947e-08 
428 1 0.28561 0.0715922 0.165539 55.845 1.54879e-07 
429 1 0.32142 0.0714259 0.123059 55.845 -2.59239e-07 
430 1 0.32147 0.107091 0.165724 55.845 2.64635e-07 
431 1 0.35718 0.107161 0.12311 55.845 -2.96375e-07 
439 1 0.321449 5.5337e-05 0.122896 55.845 -1.38045e-07 
440 1 0.321476 0.0358492 0.165241 55.845 7.75651e-08 
441 1 0.357173 0.0358065 0.122705 55.845 -2.25204e-07 
442 1 0.357194 0.0713637 0.165253 55.845 1.94975e-07 
517 1 0.285714 0.107143 0.0416667 55.845 -4.14869e-07 
527 1 0.25 0 0.0416667 55.845 -2.4245e-07 
529 1 0.285714 0.0357143 0.0416667 55.845 -4.05312e-07 
530 1 0.285685 0.0715001 0.0821881 55.845 4.151e-07 
531 1 0.321429 0.0714286 0.0416667 55.845 -4.25475e-07 
532 1 0.321376 0.107077 0.0822985 55.845 4.05341e-07 
533 1 0.357143 0.107143 0.0416667 55.845 -3.59383e-07 
603 1 0.357143 0.0714286 0 55.845 5.44494e-08 
541 1 0.321429 0 0.0416667 55.845 -3.31391e-07 
542 1 0.321512 0.0357579 0.0821594 55.845 3.69715e-07 
543 1 0.357143 0.0357143 0.0416667 55.845 -4.24109e-07 
544 1 0.357192 0.071521 0.0822484 55.845 4.40047e-07 
602 1 0.321429 0.0357143 0 55.845 4.28189e-08 
596 1 0.285714 0.0714286 0 55.845 7.74198e-08 
597 1 0.321429 0.107143 0 55.845 6.89013e-08 
612 1 0.464286 0.0357143 0 55.845 1.0564e-07 
611 1 0.428571 0 0 55.845 1.40054e-07 
610 1 0.464286 0.107143 0 55.845 -5.73581e-08 
609 1 0.428571 0.0714286 0 55.845 3.26287e-08 
608 1 0.392857 0.0357143 0 55.845 6.21959e-08 
341 1 0.392885 0.0713258 0.208835 55.845 1.52591e-08 
343 1 0.428522 0.107165 0.208735 55.845 3.77309e-08 
348 1 0.392833 9.55012e-05 0.208886 55.845 1.79791e-07 
350 1 0.428595 0.035757 0.208666 55.845 2.0634e-07 
352 1 0.464263 0.0714055 0.208796 55.845 2.3329e-07 
355 1 0.464342 -4.22883e-05 0.208578 55.845 3.9581e-07 
443 1 0.392943 0.0713764 0.122846 55.845 -2.76355e-07 
444 1 0.392865 0.107056 0.165517 55.845 2.30236e-07 
445 1 0.428453 0.107074 0.12285 55.845 -1.63188e-07 
604 1 0.392857 0.107143 0 55.845 1.00624e-08 
450 1 0.393013 3.86861e-05 0.1228 55.845 -2.22847e-07 
451 1 0.392975 0.0356862 0.165438 55.845 4.46051e-08 
452 1 0.428742 0.0357256 0.122605 55.845 -1.86757e-07 
453 1 0.428448 0.0714312 0.165392 55.845 8.51817e-08 
454 1 0.464274 0.0715316 0.122876 55.845 -1.09543e-07 
455 1 0.464256 0.107064 0.165557 55.845 4.95221e-08 
456 1 0.428811 -3.36786e-05 0.165225 55.845 -7.16158e-08 
457 1 0.46433 -1.70313e-06 0.122778 55.845 -1.55012e-07 
458 1 0.464197 0.0357259 0.165128 55.845 -3.8718e-08 
545 1 0.392857 0.0714286 0.0416667 55.845 -4.54487e-07 
546 1 0.392843 0.10721 0.0822024 55.845 4.22388e-07 
547 1 0.428571 0.107143 0.0416667 55.845 -3.92998e-07 
552 1 0.392857 0 0.0416667 55.845 -3.71771e-07 
553 1 0.392841 0.0356634 0.0821302 55.845 3.35286e-07 
554 1 0.428571 0.0357143 0.0416667 55.845 -4.36186e-07 
555 1 0.428656 0.0713707 0.0820418 55.845 4.03219e-07 
556 1 0.464286 0.0714286 0.0416667 55.845 -4.84071e-07 
557 1 0.46429 0.107206 0.0820945 55.845 3.00571e-07 
558 1 0.428655 -1.97036e-05 0.0820002 55.845 3.13169e-07 
559 1 0.464286 0 0.0416667 55.845 -3.86162e-07 
560 1 0.46426 0.035743 0.0818056 55.845 4.18754e-07 
255 1 2.72405e-05 0.178557 0.208495 55.845 3.43836e-07 
257 1 0.0357127 0.214185 0.208809 55.845 2.36133e-07 
261 1 0.0355356 0.142912 0.208619 55.845 2.37196e-07 
263 1 0.0712945 0.178667 0.208759 55.845 2.45493e-07 
265 1 0.107148 0.214195 0.208813 55.845 3.26965e-07 
273 1 0.107179 0.142876 0.208811 55.845 9.14989e-09 
357 1 0.000102459 0.178464 0.122816 55.845 1.39652e-07 
358 1 3.17998e-05 0.214284 0.165252 55.845 -6.82689e-08 
359 1 0.0356534 0.214332 0.122826 55.845 5.58262e-08 
360 1 0.0356417 0.249986 0.165404 55.845 7.21866e-09 
362 1 4.86776e-06 0.142854 0.165132 55.845 -1.94536e-07 
363 1 0.035737 0.142905 0.122871 55.845 -1.06083e-08 
364 1 0.0356903 0.178589 0.165372 55.845 -7.84268e-08 
365 1 0.0714416 0.178494 0.122848 55.845 -6.31975e-09 
366 1 0.0713905 0.21425 0.165426 55.845 -7.94998e-08 
367 1 0.107131 0.214324 0.122836 55.845 1.42573e-08 
368 1 0.107141 0.249978 0.16551 55.845 -1.50748e-07 
374 1 0.0712669 0.142972 0.165489 55.845 6.54673e-08 
375 1 0.107224 0.142842 0.122989 55.845 -1.47219e-07 
376 1 0.107129 0.178658 0.165486 55.845 -1.19975e-08 
459 1 0 0.178571 0.0416667 55.845 -3.08014e-07 
460 1 4.69408e-05 0.214277 0.0821552 55.845 2.4449e-07 
461 1 0.0357143 0.214286 0.0416667 55.845 -2.23855e-07 
462 1 0.0357875 0.250072 0.0820772 55.845 3.1265e-07 
464 1 2.61327e-05 0.142827 0.082152 55.845 2.20989e-07 
465 1 0.0357143 0.142857 0.0416667 55.845 -3.36025e-07 
466 1 0.0356306 0.178484 0.0820362 55.845 1.29934e-07 
467 1 0.0714286 0.178571 0.0416667 55.845 -2.25198e-07 
468 1 0.0713223 0.214221 0.0823437 55.845 1.17919e-07 
469 1 0.107143 0.214286 0.0416667 55.845 -1.07348e-07 
470 1 0.107009 0.249957 0.0822138 55.845 5.67349e-08 
476 1 0.0715526 0.142877 0.0823646 55.845 1.67621e-07 
477 1 0.107143 0.142857 0.0416667 55.845 -1.77001e-07 
478 1 0.107183 0.178612 0.0820472 55.845 1.05915e-07 
561 1 0 0.214286 0 55.845 -9.01687e-08 
562 1 0.0357143 0.25 0 55.845 5.86054e-08 
563 1 0 0.142857 0 55.845 -9.96609e-08 
564 1 0.0357143 0.178571 0 55.845 -9.97951e-08 
565 1 0.0714286 0.214286 0 55.845 -4.59107e-09 
566 1 0.107143 0.25 0 55.845 1.24832e-08 
569 1 0.0714286 0.142857 0 55.845 -6.45019e-08 
570 1 0.107143 0.178571 0 55.845 1.57777e-08 
275 1 0.14283 0.178745 0.208767 55.845 2.16723e-07 
277 1 0.178566 0.214248 0.208709 55.845 4.6448e-07 
287 1 0.178597 0.142857 0.20883 55.845 1.9704e-07 
289 1 0.214272 0.178571 0.208896 55.845 3.705e-07 
291 1 0.249876 0.21443 0.208735 55.845 3.76191e-07 
301 1 0.249937 0.142832 0.208805 55.845 2.03368e-07 
377 1 0.142855 0.178632 0.122808 55.845 -3.62264e-08 
378 1 0.142863 0.214305 0.165345 55.845 -1.66972e-07 
379 1 0.17857 0.214393 0.1231 55.845 1.55123e-08 
388 1 0.142996 0.14283 0.165394 55.845 6.25961e-08 
389 1 0.178585 0.142893 0.122945 55.845 -1.40168e-07 
390 1 0.17863 0.178438 0.165469 55.845 -9.84893e-08 
391 1 0.214218 0.178578 0.122938 55.845 -1.30373e-07 
392 1 0.214295 0.214175 0.165562 55.845 -1.61569e-07 
393 1 0.249987 0.214405 0.122943 55.845 -4.11291e-08 
402 1 0.21419 0.142837 0.16525 55.845 3.89988e-08 
403 1 0.250015 0.142821 0.123079 55.845 -2.45933e-07 
404 1 0.249813 0.178556 0.165342 55.845 -4.78539e-08 
479 1 0.142857 0.178571 0.0416667 55.845 -1.02729e-07 
480 1 0.142911 0.214194 0.0821542 55.845 -3.86764e-08 
481 1 0.178571 0.214286 0.0416667 55.845 -1.3976e-07 
490 1 0.142795 0.142817 0.0819431 55.845 2.03169e-07 
491 1 0.178571 0.142857 0.0416667 55.845 -1.91486e-07 
492 1 0.178598 0.178653 0.0822645 55.845 9.21315e-09 
493 1 0.214286 0.178571 0.0416667 55.845 -1.8342e-07 
494 1 0.214282 0.214334 0.0821135 55.845 5.51653e-08 
495 1 0.25 0.214286 0.0416667 55.845 -1.84146e-07 
504 1 0.214279 0.142821 0.0820829 55.845 1.32881e-07 
505 1 0.25 0.142857 0.0416667 55.845 -3.37365e-07 
506 1 0.249952 0.178523 0.0820302 55.845 4.19954e-08 
571 1 0.142857 0.214286 0 55.845 4.14803e-08 
576 1 0.142857 0.142857 0 55.845 1.00961e-07 
577 1 0.178571 0.178571 0 55.845 1.10851e-07 
578 1 0.214286 0.214286 0 55.845 1.07499e-07 
583 1 0.214286 0.142857 0 55.845 7.03528e-08 
584 1 0.25 0.178571 0 55.845 5.55932e-08 
303 1 0.285599 0.17869 0.208958 55.845 1.63372e-07 
305 1 0.321411 0.214269 0.208937 55.845 1.74954e-07 
315 1 0.32153 0.142839 0.208926 55.845 -2.50021e-08 
317 1 0.35713 0.1787 0.209006 55.845 2.16836e-08 
405 1 0.285718 0.17867 0.122923 55.845 -1.89862e-07 
406 1 0.285673 0.214187 0.165435 55.845 3.82267e-09 
407 1 0.321353 0.214231 0.122977 55.845 -1.06803e-07 
416 1 0.285711 0.14287 0.165659 55.845 1.34532e-07 
417 1 0.321488 0.142907 0.123087 55.845 -2.80601e-07 
418 1 0.321321 0.178589 0.165647 55.845 1.30623e-07 
419 1 0.357125 0.178537 0.123004 55.845 -1.20837e-07 
420 1 0.35709 0.214244 0.165429 55.845 -5.08572e-09 
432 1 0.357184 0.142848 0.165591 55.845 2.34063e-07 
507 1 0.285714 0.178571 0.0416667 55.845 -2.31451e-07 
508 1 0.285737 0.214134 0.082 55.845 1.72844e-07 
509 1 0.321429 0.214286 0.0416667 55.845 -1.82459e-07 
518 1 0.285675 0.142854 0.0823565 55.845 2.15837e-07 
519 1 0.321429 0.142857 0.0416667 55.845 -2.83422e-07 
520 1 0.321367 0.178662 0.0824143 55.845 1.89887e-07 
521 1 0.357143 0.178571 0.0416667 55.845 -1.73217e-07 
522 1 0.357108 0.214287 0.0822348 55.845 9.07478e-08 
534 1 0.357119 0.142819 0.0821941 55.845 3.88248e-07 
585 1 0.285714 0.214286 0 55.845 6.2045e-08 
590 1 0.285714 0.142857 0 55.845 2.53752e-08 
591 1 0.321429 0.178571 0 55.845 3.79693e-09 
592 1 0.357143 0.214286 0 55.845 -5.10335e-08 
598 1 0.357143 0.142857 0 55.845 4.01878e-08 
319 1 0.392747 0.214336 0.208945 55.845 2.81315e-07 
321 1 0.428629 0.24997 0.208674 55.845 6.44354e-07 
331 1 0.392685 0.14283 0.209092 55.845 -1.1361e-08 
333 1 0.428541 0.178546 0.208835 55.845 2.36905e-07 
335 1 0.464292 0.214169 0.208599 55.845 4.54798e-07 
345 1 0.464323 0.142814 0.208722 55.845 1.41238e-07 
606 1 0.464286 0.178571 0 55.845 -1.6374e-07 
421 1 0.392834 0.214244 0.122818 55.845 9.50369e-08 
422 1 0.392842 0.250041 0.165173 55.845 -3.1361e-07 
423 1 0.428533 0.249934 0.122801 55.845 3.68395e-07 
433 1 0.392753 0.142855 0.123147 55.845 -1.4313e-07 
434 1 0.392839 0.17858 0.16569 55.845 3.86311e-08 
435 1 0.428429 0.178512 0.122935 55.845 1.2089e-07 
436 1 0.428521 0.214328 0.16543 55.845 -3.60979e-07 
437 1 0.464135 0.214188 0.12288 55.845 3.28843e-07 
605 1 0.428571 0.142857 0 55.845 -1.16536e-07 
446 1 0.428444 0.142927 0.16541 55.845 5.15945e-08 
447 1 0.464206 0.14268 0.122961 55.845 3.31339e-08 
448 1 0.464157 0.178498 0.165311 55.845 -1.6116e-07 
523 1 0.392857 0.214286 0.0416667 55.845 -1.41403e-07 
524 1 0.39276 0.250097 0.0821292 55.845 8.62691e-09 
525 1 0.428571 0.25 0.0416667 55.845 -1.41869e-07 
535 1 0.392857 0.142857 0.0416667 55.845 -2.51978e-07 
536 1 0.392848 0.178445 0.0820408 55.845 1.65625e-07 
537 1 0.428571 0.178571 0.0416667 55.845 -1.78236e-07 
538 1 0.428499 0.214275 0.0819728 55.845 -6.99618e-09 
539 1 0.464286 0.214286 0.0416667 55.845 -9.82288e-08 
548 1 0.428566 0.142865 0.0820682 55.845 2.47418e-07 
549 1 0.464286 0.142857 0.0416667 55.845 -3.11826e-07 
550 1 0.464264 0.178466 0.0821808 55.845 2.39566e-08 
593 1 0.392857 0.25 0 55.845 -8.07405e-08 
599 1 0.392857 0.178571 0 55.845 -9.07427e-08 
600 1 0.428571 0.214286 0 55.845 -1.16244e-07 
3 1 -0.000213702 0.107143 0.460751 55.845 -1.64024e-07 
7 1 2.38323e-05 0.0356668 0.4605 55.845 3.6826e-08 
8 1 0.0355404 0.0713884 0.46071 55.845 -7.07992e-08 
9 1 0.0714699 0.107042 0.460765 55.845 -2.10855e-07 
13 1 0.0357607 -1.13485e-05 0.460602 55.845 2.16167e-07 
14 1 0.0714887 0.0355478 0.46058 55.845 4.80408e-08 
15 1 0.107174 0.0713309 0.460572 55.845 -1.70639e-07 
20 1 0.107058 -4.89867e-05 0.460666 55.845 6.85527e-10 
55 1 -6.85946e-05 0.107198 0.375993 55.845 -1.60762e-07 
63 1 0.00014597 0.0357448 0.375911 55.845 -1.5079e-07 
64 1 -9.07633e-05 0.0713615 0.418854 55.845 -4.76618e-08 
65 1 0.0356603 0.0714752 0.376055 55.845 -2.1749e-07 
66 1 0.0357005 0.106991 0.418933 55.845 9.03419e-08 
67 1 0.0714109 0.107131 0.376217 55.845 -3.43649e-07 
74 1 3.06134e-05 -1.10716e-05 0.418761 55.845 -1.83232e-07 
75 1 0.0355805 9.48188e-05 0.375982 55.845 -1.09892e-07 
76 1 0.0357986 0.0358143 0.418906 55.845 -1.01573e-07 
77 1 0.071507 0.0355571 0.376054 55.845 -1.76871e-07 
78 1 0.0713826 0.0713492 0.418894 55.845 4.85803e-08 
79 1 0.107104 0.0712848 0.376117 55.845 -3.17333e-07 
80 1 0.107223 0.107132 0.418926 55.845 1.93452e-07 
88 1 0.0713426 -0.000123251 0.418878 55.845 -1.72778e-07 
89 1 0.107078 -0.000153472 0.37602 55.845 -7.91145e-08 
90 1 0.107122 0.035601 0.419043 55.845 2.09055e-08 
157 1 4.31768e-06 0.107132 0.292187 55.845 7.60698e-07 
165 1 -1.27111e-05 0.035616 0.29228 55.845 6.51388e-07 
166 1 -7.3209e-05 0.0714602 0.333644 55.845 -4.98054e-07 
167 1 0.0356579 0.0714993 0.292358 55.845 5.99018e-07 
168 1 0.0356493 0.107243 0.3337 55.845 -3.64091e-07 
169 1 0.0713759 0.107091 0.292364 55.845 5.72911e-07 
176 1 1.36497e-05 -6.6495e-05 0.333534 55.845 -5.60285e-07 
177 1 0.0357066 -4.02927e-05 0.292184 55.845 6.23848e-07 
178 1 0.035699 0.0357378 0.333643 55.845 -5.58946e-07 
179 1 0.0713455 0.0358838 0.292592 55.845 6.67681e-07 
180 1 0.0713294 0.0714669 0.333725 55.845 -4.06725e-07 
181 1 0.107125 0.0714959 0.29252 55.845 6.34024e-07 
182 1 0.107067 0.107105 0.333948 55.845 -2.95649e-07 
190 1 0.0714462 2.23293e-05 0.333609 55.845 -6.51371e-07 
191 1 0.107009 4.92815e-06 0.2925 55.845 8.52589e-07 
192 1 0.107176 0.0357166 0.333638 55.845 -4.54871e-07 
268 1 -0.000198646 0.071511 0.251269 55.845 -3.70433e-07 
270 1 0.0356449 0.107138 0.251286 55.845 -2.86472e-07 
278 1 -4.02892e-05 -8.81128e-05 0.251255 55.845 -5.4576e-08 
280 1 0.0356484 0.0357522 0.251188 55.845 -2.64889e-07 
282 1 0.0713803 0.0714517 0.251315 55.845 -2.26224e-07 
284 1 0.107168 0.107122 0.251409 55.845 -7.08835e-08 
292 1 0.0714494 5.0828e-05 0.251314 55.845 -2.68078e-07 
294 1 0.107016 0.0357726 0.251554 55.845 -2.97161e-07 
16 1 0.142864 0.107076 0.460472 55.845 -2.03543e-07 
21 1 0.14301 0.0356393 0.460622 55.845 -1.93758e-07 
22 1 0.178678 0.0713846 0.460393 55.845 -1.87422e-07 
23 1 0.214175 0.10711 0.460638 55.845 -2.96755e-08 
27 1 0.178479 -8.85773e-05 0.460627 55.845 -3.00059e-07 
28 1 0.214275 0.0357965 0.460655 55.845 -2.4493e-07 
29 1 0.249997 0.0714266 0.460559 55.845 -3.2962e-08 
81 1 0.142974 0.107173 0.376021 55.845 -4.78075e-07 
91 1 0.142822 0.03571 0.376038 55.845 -2.18212e-07 
92 1 0.142889 0.0713231 0.418776 55.845 2.02091e-07 
93 1 0.178566 0.0714693 0.376247 55.845 -3.12931e-07 
94 1 0.178605 0.107209 0.418803 55.845 2.08819e-07 
95 1 0.214174 0.10721 0.375721 55.845 -3.06863e-07 
102 1 0.142795 -0.000176795 0.418875 55.845 9.78095e-08 
103 1 0.178588 -3.36687e-05 0.376062 55.845 -1.99518e-07 
104 1 0.178698 0.0357224 0.418697 55.845 2.41838e-07 
105 1 0.214226 0.0356195 0.376051 55.845 -2.71523e-07 
106 1 0.214323 0.0714198 0.418783 55.845 1.42328e-07 
107 1 0.249892 0.0715213 0.375947 55.845 -2.3748e-07 
108 1 0.249981 0.107128 0.418651 55.845 -5.19642e-08 
118 1 0.214262 -4.55463e-05 0.418976 55.845 2.73426e-07 
120 1 0.249943 0.035726 0.418791 55.845 1.60649e-07 
183 1 0.142781 0.107101 0.29259 55.845 5.02722e-07 
193 1 0.142889 0.0357772 0.292676 55.845 8.0316e-07 
194 1 0.142858 0.071391 0.333815 55.845 -3.37579e-07 
195 1 0.178609 0.0713747 0.292379 55.845 5.99358e-07 
196 1 0.178514 0.107031 0.333466 55.845 -3.11631e-07 
197 1 0.214216 0.107032 0.292452 55.845 6.05606e-07 
204 1 0.142793 -8.63689e-05 0.333767 55.845 -5.1885e-07 
205 1 0.178559 -9.94914e-06 0.292686 55.845 8.72448e-07 
206 1 0.178535 0.0356941 0.333622 55.845 -3.95269e-07 
207 1 0.21437 0.0356954 0.292591 55.845 6.58771e-07 
208 1 0.214174 0.0713144 0.333746 55.845 -4.08697e-07 
209 1 0.249907 0.0714922 0.292608 55.845 6.02018e-07 
210 1 0.249947 0.107139 0.333453 55.845 -4.67568e-07 
220 1 0.214345 3.01038e-05 0.333777 55.845 -3.29881e-07 
222 1 0.250008 0.0358435 0.333788 55.845 -3.51455e-07 
296 1 0.142785 0.0714495 0.251518 55.845 -2.10593e-07 
298 1 0.178433 0.107128 0.251359 55.845 -1.3124e-07 
306 1 0.142831 0.000101972 0.25176 55.845 -5.05904e-07 
308 1 0.178639 0.0357128 0.251588 55.845 -3.7529e-07 
310 1 0.214271 0.0714619 0.251401 55.845 -2.39143e-07 
312 1 0.249951 0.107168 0.251535 55.845 -1.08145e-07 
322 1 0.214288 5.52376e-05 0.251574 55.845 -5.03615e-07 
324 1 0.24996 0.0357522 0.251393 55.845 -2.98985e-07 
30 1 0.28571 0.107203 0.46044 55.845 1.08956e-07 
35 1 0.250014 -3.64703e-05 0.460722 55.845 -3.66763e-07 
36 1 0.285833 0.0357327 0.460682 55.845 -1.80375e-07 
37 1 0.321484 0.0714428 0.460179 55.845 -9.49973e-08 
38 1 0.357075 0.107187 0.460354 55.845 -3.34205e-08 
42 1 0.321553 -3.51327e-05 0.460505 55.845 -3.3053e-07 
43 1 0.357272 0.0356631 0.460345 55.845 -2.27096e-07 
109 1 0.285612 0.107265 0.375993 55.845 -1.74067e-07 
119 1 0.250075 1.98907e-05 0.37609 55.845 -3.38826e-07 
121 1 0.285711 0.0357234 0.375953 55.845 -3.52563e-07 
122 1 0.285726 0.0714318 0.418787 55.845 5.0673e-08 
123 1 0.321331 0.0714842 0.375851 55.845 -3.1962e-07 
124 1 0.321282 0.107194 0.418684 55.845 5.35431e-08 
125 1 0.357063 0.107033 0.375786 55.845 -3.47342e-07 
133 1 0.321482 1.60433e-05 0.376011 55.845 -3.77362e-07 
134 1 0.32155 0.0356594 0.418936 55.845 2.19428e-07 
135 1 0.357165 0.0356668 0.375811 55.845 -3.94104e-07 
136 1 0.3572 0.0714404 0.418766 55.845 1.52296e-07 
211 1 0.285626 0.107073 0.29274 55.845 6.36124e-07 
221 1 0.250001 0.000148871 0.292498 55.845 6.57281e-07 
223 1 0.285643 0.0357546 0.292599 55.845 5.90841e-07 
224 1 0.285752 0.0714595 0.333609 55.845 -3.72867e-07 
225 1 0.321515 0.0713818 0.292403 55.845 5.22206e-07 
226 1 0.32134 0.107138 0.333708 55.845 -3.46221e-07 
227 1 0.357041 0.107114 0.292602 55.845 3.99104e-07 
235 1 0.321432 9.30435e-05 0.292446 55.845 5.99596e-07 
236 1 0.321448 0.0356779 0.333679 55.845 -2.26965e-07 
237 1 0.35709 0.0357269 0.292552 55.845 5.32636e-07 
238 1 0.35712 0.0715256 0.333677 55.845 -2.21752e-07 
326 1 0.285563 0.0715259 0.2514 55.845 -1.27901e-07 
328 1 0.321335 0.106991 0.251556 55.845 -4.81987e-08 
338 1 0.321436 0.0357023 0.251141 55.845 -1.18183e-07 
340 1 0.357183 0.07144 0.251305 55.845 -4.99196e-08 
44 1 0.392946 0.0713114 0.460457 55.845 -1.85105e-07 
45 1 0.428563 0.107038 0.460378 55.845 -1.6276e-07 
47 1 0.39281 -4.76533e-05 0.460639 55.845 -1.23787e-07 
48 1 0.428609 0.0356065 0.460587 55.845 -1.11853e-07 
49 1 0.464165 0.0714999 0.460604 55.845 -1.02943e-07 
50 1 0.464293 6.39407e-05 0.460439 55.845 -8.65259e-09 
137 1 0.392921 0.0712664 0.37577 55.845 -3.78568e-07 
138 1 0.39295 0.107006 0.4185 55.845 1.93026e-07 
139 1 0.428736 0.106998 0.375728 55.845 -3.04492e-07 
144 1 0.392897 -1.88051e-05 0.375707 55.845 -3.33225e-07 
145 1 0.392942 0.0357015 0.41861 55.845 2.15874e-07 
146 1 0.428615 0.0355826 0.375698 55.845 -2.73579e-07 
147 1 0.428568 0.0713614 0.418702 55.845 1.30197e-07 
148 1 0.464238 0.0714794 0.375858 55.845 -1.70743e-07 
149 1 0.46424 0.107107 0.418683 55.845 7.37907e-08 
150 1 0.428488 -0.000142282 0.418718 55.845 1.35249e-07 
151 1 0.464176 -3.54348e-05 0.376037 55.845 -2.20167e-07 
152 1 0.464262 0.0356709 0.41869 55.845 4.41168e-08 
239 1 0.392872 0.0713745 0.2925 55.845 4.79012e-07 
240 1 0.392902 0.107106 0.333703 55.845 -2.44162e-07 
241 1 0.42859 0.107084 0.292559 55.845 5.26269e-07 
246 1 0.39282 5.24777e-05 0.292512 55.845 6.7097e-07 
247 1 0.392851 0.0357385 0.333302 55.845 -3.0444e-07 
248 1 0.428605 0.0357707 0.292377 55.845 6.77335e-07 
249 1 0.428668 0.0714376 0.333475 55.845 -3.27334e-07 
250 1 0.46432 0.0713835 0.292478 55.845 6.41742e-07 
251 1 0.464348 0.107206 0.333439 55.845 -3.30802e-07 
252 1 0.428701 -4.74932e-05 0.33338 55.845 -5.83626e-07 
253 1 0.464275 -6.22722e-05 0.292308 55.845 7.97623e-07 
254 1 0.464332 0.0356997 0.333354 55.845 -5.74983e-07 
342 1 0.392883 0.107077 0.25159 55.845 -1.30315e-07 
349 1 0.392902 0.0357791 0.251471 55.845 -1.40767e-07 
351 1 0.428658 0.0714247 0.251453 55.845 -1.77875e-07 
353 1 0.46433 0.107008 0.251565 55.845 -2.23762e-07 
354 1 0.428456 3.2879e-06 0.251371 55.845 -3.42298e-07 
356 1 0.464306 0.0356243 0.251164 55.845 -3.63889e-07 
1 1 -0.000156307 0.178496 0.460705 55.845 -2.05846e-07 
2 1 0.0356827 0.21432 0.460664 55.845 -1.88604e-07 
4 1 0.0357018 0.142868 0.460591 55.845 -2.5094e-07 
5 1 0.0713541 0.178603 0.46069 55.845 -2.88495e-07 
6 1 0.107237 0.214228 0.460757 55.845 -2.53846e-07 
10 1 0.107061 0.142842 0.4607 55.845 -2.33586e-07 
51 1 -7.91839e-05 0.178574 0.376036 55.845 -2.17425e-07 
52 1 -3.47895e-05 0.214243 0.418916 55.845 9.82603e-08 
53 1 0.0356428 0.214198 0.375989 55.845 -3.73285e-07 
54 1 0.0357461 0.250045 0.41874 55.845 1.23605e-07 
56 1 -9.0823e-05 0.142805 0.418962 55.845 9.34332e-08 
57 1 0.0356368 0.142874 0.376283 55.845 -2.98176e-07 
58 1 0.0356585 0.178677 0.419042 55.845 2.10503e-07 
59 1 0.0713357 0.178527 0.376039 55.845 -4.48069e-07 
60 1 0.0715093 0.2143 0.418829 55.845 2.43886e-07 
61 1 0.107109 0.214322 0.375915 55.845 -5.1e-07 
62 1 0.107163 0.249995 0.418778 55.845 2.40724e-07 
68 1 0.0713257 0.142826 0.419043 55.845 2.58514e-07 
69 1 0.107125 0.142868 0.376089 55.845 -4.82953e-07 
70 1 0.107157 0.178575 0.418978 55.845 3.35798e-07 
153 1 -0.000127775 0.178596 0.292505 55.845 7.58263e-07 
154 1 -1.93526e-05 0.214372 0.333607 55.845 -4.19173e-07 
155 1 0.0356656 0.214206 0.292549 55.845 6.29794e-07 
156 1 0.0356393 0.249923 0.333622 55.845 -4.2328e-07 
158 1 -0.000180067 0.142756 0.333627 55.845 -4.66156e-07 
159 1 0.0355715 0.142773 0.292399 55.845 6.82139e-07 
160 1 0.0356133 0.178554 0.333709 55.845 -3.84884e-07 
161 1 0.0712669 0.178449 0.292576 55.845 6.24176e-07 
162 1 0.0713599 0.214216 0.333569 55.845 -3.46871e-07 
163 1 0.107147 0.214112 0.292548 55.845 6.77571e-07 
164 1 0.107274 0.249939 0.333538 55.845 -4.22302e-07 
170 1 0.0712771 0.142811 0.333717 55.845 -3.19724e-07 
171 1 0.107025 0.14271 0.292566 55.845 5.08895e-07 
172 1 0.107147 0.178381 0.333704 55.845 -3.24956e-07 
256 1 5.96926e-05 0.214214 0.251388 55.845 -4.03347e-07 
258 1 0.0357787 0.249893 0.251446 55.845 -3.18974e-07 
260 1 -9.8803e-05 0.142917 0.251213 55.845 -5.33081e-07 
262 1 0.035681 0.178448 0.251517 55.845 -3.73983e-07 
264 1 0.0714391 0.214182 0.251474 55.845 -3.49372e-07 
266 1 0.107229 0.249944 0.251388 55.845 -3.3844e-07 
272 1 0.0713341 0.142846 0.251191 55.845 -1.90643e-07 
274 1 0.107099 0.178514 0.251479 55.845 -2.09195e-07 
11 1 0.142822 0.178643 0.460462 55.845 -1.89276e-07 
12 1 0.178499 0.214296 0.460551 55.845 -2.35289e-07 
17 1 0.178531 0.142902 0.460463 55.845 -6.8022e-08 
18 1 0.214059 0.178671 0.460458 55.845 -2.99165e-08 
19 1 0.249935 0.214412 0.460456 55.845 -2.93715e-08 
24 1 0.249947 0.142918 0.460363 55.845 1.45136e-07 
71 1 0.142683 0.178625 0.375825 55.845 -5.63384e-07 
72 1 0.142835 0.214305 0.418741 55.845 3.55655e-07 
73 1 0.178509 0.214316 0.375942 55.845 -4.74141e-07 
82 1 0.142881 0.143033 0.418655 55.845 2.92519e-07 
83 1 0.178529 0.142786 0.375898 55.845 -4.76085e-07 
84 1 0.178574 0.178701 0.418555 55.845 3.15755e-07 
85 1 0.214232 0.178512 0.376009 55.845 -4.11179e-07 
86 1 0.214135 0.214342 0.418668 55.845 2.25867e-07 
87 1 0.250001 0.214352 0.375978 55.845 -3.45125e-07 
96 1 0.214277 0.142908 0.418761 55.845 1.5469e-07 
97 1 0.249927 0.142761 0.375847 55.845 -1.54128e-07 
98 1 0.249948 0.178611 0.418627 55.845 7.44199e-08 
173 1 0.142815 0.178563 0.292404 55.845 5.42248e-07 
174 1 0.142886 0.214271 0.333563 55.845 -3.43548e-07 
175 1 0.178672 0.214314 0.292291 55.845 7.58264e-07 
184 1 0.142755 0.142787 0.333579 55.845 -2.84321e-07 
185 1 0.178525 0.142862 0.292446 55.845 5.04031e-07 
186 1 0.178449 0.178553 0.333491 55.845 -3.69085e-07 
187 1 0.214335 0.178563 0.292462 55.845 7.35896e-07 
188 1 0.214306 0.214226 0.333514 55.845 -4.71801e-07 
189 1 0.250032 0.2143 0.292513 55.845 7.24072e-07 
198 1 0.214321 0.142797 0.333508 55.845 -4.38288e-07 
199 1 0.24997 0.142897 0.292423 55.845 7.7511e-07 
200 1 0.250074 0.178513 0.333672 55.845 -4.95809e-07 
276 1 0.142827 0.2142 0.251375 55.845 -2.77338e-07 
286 1 0.142867 0.142809 0.251302 55.845 -1.11652e-07 
288 1 0.178644 0.178564 0.251324 55.845 -2.47506e-07 
290 1 0.214237 0.214268 0.251298 55.845 -2.86402e-07 
300 1 0.214197 0.142747 0.251391 55.845 -1.52188e-07 
302 1 0.249792 0.178537 0.25142 55.845 -2.18878e-07 
25 1 0.285641 0.178513 0.460365 55.845 5.1866e-08 
26 1 0.321434 0.214327 0.460413 55.845 -1.36689e-07 
31 1 0.321281 0.142915 0.460569 55.845 5.38564e-08 
32 1 0.35719 0.178536 0.460489 55.845 -1.78743e-07 
99 1 0.285713 0.178558 0.375944 55.845 -2.24556e-07 
100 1 0.285839 0.214296 0.418926 55.845 9.24056e-08 
101 1 0.321474 0.214299 0.375994 55.845 -3.28358e-07 
110 1 0.285662 0.142832 0.41867 55.845 -4.60004e-08 
111 1 0.321537 0.142764 0.375754 55.845 -2.92048e-07 
112 1 0.321427 0.178548 0.418743 55.845 1.62228e-07 
113 1 0.357187 0.178566 0.375956 55.845 -4.2747e-07 
114 1 0.357131 0.214244 0.418899 55.845 3.36256e-07 
126 1 0.357082 0.142736 0.418565 55.845 2.13154e-07 
201 1 0.285621 0.178745 0.292372 55.845 7.09578e-07 
202 1 0.285723 0.214384 0.333811 55.845 -5.2216e-07 
203 1 0.321536 0.214297 0.292441 55.845 6.62171e-07 
212 1 0.285613 0.143003 0.333612 55.845 -5.05587e-07 
213 1 0.321324 0.14287 0.292416 55.845 5.38206e-07 
214 1 0.321376 0.178694 0.333541 55.845 -4.53303e-07 
215 1 0.357199 0.178468 0.292451 55.845 5.27091e-07 