ITEM: TIMESTEP
8500
ITEM: NUMBER OF ATOMS
5880
ITEM: BOX BOUNDS pp pp ff
-27.9711 27.9711
-27.9711 27.9711
0 34.092
ITEM: ATOMS id type xs ys zs mass q 
259 1 0.000139494 0.107197 0.209308 55.845 5.30361e-07 
267 1 3.43394e-05 0.0357482 0.209205 55.845 3.97874e-07 
269 1 0.0356616 0.0714321 0.209341 55.845 3.82219e-07 
271 1 0.071501 0.107069 0.209296 55.845 1.51522e-07 
279 1 0.0356936 9.35966e-05 0.209186 55.845 4.25015e-07 
281 1 0.0714716 0.0355519 0.209408 55.845 3.98206e-07 
283 1 0.107069 0.071438 0.20941 55.845 3.26497e-07 
293 1 0.107112 3.81052e-06 0.209352 55.845 8.12074e-07 
361 1 9.40723e-06 0.10719 0.126921 55.845 4.68886e-07 
369 1 9.34845e-05 0.035774 0.126752 55.845 8.05736e-07 
370 1 7.46345e-05 0.0714205 0.167915 55.845 -6.87533e-07 
371 1 0.0357014 0.0714015 0.126782 55.845 6.84595e-07 
372 1 0.0355858 0.107044 0.167881 55.845 -4.34019e-07 
373 1 0.0713509 0.10719 0.127021 55.845 3.46683e-07 
380 1 3.1007e-05 8.1782e-05 0.167716 55.845 -6.30038e-07 
381 1 0.0358489 0.000131329 0.126975 55.845 8.61587e-07 
382 1 0.0357701 0.0357607 0.167996 55.845 -6.18068e-07 
383 1 0.0715052 0.0357507 0.126875 55.845 7.47534e-07 
384 1 0.0713962 0.0713535 0.167969 55.845 -5.30621e-07 
385 1 0.107147 0.0715189 0.126879 55.845 5.55444e-07 
386 1 0.107085 0.107192 0.167936 55.845 -4.73589e-07 
394 1 0.0714909 1.39141e-05 0.167834 55.845 -7.63327e-07 
395 1 0.107203 2.35567e-05 0.126837 55.845 8.43741e-07 
396 1 0.107247 0.035726 0.168005 55.845 -7.78437e-07 
463 1 0 0.107143 0.0416667 55.845 1.28219e-07 
471 1 0 0.0357143 0.0416667 55.845 2.27358e-07 
472 1 0.000114408 0.0714911 0.0840307 55.845 -1.72481e-07 
473 1 0.0357143 0.0714286 0.0416667 55.845 1.56429e-07 
474 1 0.03566 0.10719 0.0841316 55.845 -6.61646e-08 
475 1 0.0714286 0.107143 0.0416667 55.845 1.75385e-07 
482 1 2.2264e-05 -2.39634e-05 0.0840289 55.845 -1.17739e-07 
483 1 0.0357143 0 0.0416667 55.845 3.68981e-07 
484 1 0.0357323 0.035688 0.0841059 55.845 -2.00443e-07 
485 1 0.0714286 0.0357143 0.0416667 55.845 3.50486e-07 
486 1 0.071379 0.0713472 0.0840583 55.845 -1.15366e-07 
487 1 0.107143 0.0714286 0.0416667 55.845 1.63197e-07 
488 1 0.107034 0.107096 0.0840401 55.845 -4.17843e-08 
496 1 0.0714887 -2.384e-05 0.0840418 55.845 -4.42323e-07 
497 1 0.107143 0 0.0416667 55.845 3.41752e-07 
498 1 0.107191 0.0358838 0.0840389 55.845 -3.18445e-07 
567 1 0 0.0714286 0 55.845 -1.4575e-07 
568 1 0.0357143 0.107143 0 55.845 1.02035e-07 
572 1 0 0 0 55.845 -3.82269e-07 
573 1 0.0357143 0.0357143 0 55.845 -1.88289e-07 
574 1 0.0714286 0.0714286 0 55.845 -1.30522e-07 
575 1 0.107143 0.107143 0 55.845 -1.28877e-07 
579 1 0.0714286 0 0 55.845 -2.47747e-07 
580 1 0.107143 0.0357143 0 55.845 -1.73079e-07 
285 1 0.142785 0.107185 0.209413 55.845 6.89442e-08 
295 1 0.142896 0.0357179 0.209294 55.845 5.32605e-07 
297 1 0.178511 0.071506 0.209364 55.845 4.55832e-07 
299 1 0.214224 0.107221 0.209325 55.845 3.18663e-07 
307 1 0.178611 2.72471e-05 0.209381 55.845 7.61613e-07 
309 1 0.214343 0.0357051 0.209348 55.845 6.46917e-07 
311 1 0.25006 0.0714929 0.209239 55.845 4.84037e-07 
387 1 0.142827 0.107151 0.126958 55.845 8.24205e-07 
397 1 0.142954 0.0356263 0.126967 55.845 7.5839e-07 
398 1 0.142898 0.0713353 0.167979 55.845 -6.80765e-07 
399 1 0.1786 0.0713897 0.12698 55.845 8.61917e-07 
400 1 0.178471 0.107199 0.167837 55.845 -6.19969e-07 
401 1 0.214195 0.107211 0.127107 55.845 9.12616e-07 
408 1 0.142834 2.72734e-05 0.168077 55.845 -8.18019e-07 
409 1 0.178631 4.48092e-05 0.126947 55.845 7.04059e-07 
410 1 0.178705 0.0357258 0.168101 55.845 -6.52129e-07 
411 1 0.21441 0.0357513 0.127105 55.845 7.41638e-07 
412 1 0.21438 0.071418 0.167995 55.845 -7.324e-07 
413 1 0.250048 0.0714832 0.127068 55.845 7.38883e-07 
414 1 0.250072 0.107262 0.167969 55.845 -6.66916e-07 
424 1 0.214338 5.60055e-05 0.168097 55.845 -6.21582e-07 
426 1 0.250085 0.0356559 0.167975 55.845 -6.3937e-07 
489 1 0.142857 0.107143 0.0416667 55.845 2.03295e-07 
499 1 0.142857 0.0357143 0.0416667 55.845 2.8837e-07 
500 1 0.142833 0.0714374 0.0841873 55.845 -2.94772e-07 
501 1 0.178571 0.0714286 0.0416667 55.845 3.34177e-07 
502 1 0.178553 0.107112 0.0840373 55.845 -1.85005e-07 
503 1 0.214286 0.107143 0.0416667 55.845 2.63767e-07 
510 1 0.14281 -2.95773e-06 0.0840886 55.845 -4.60929e-07 
511 1 0.178571 0 0.0416667 55.845 2.90682e-07 
512 1 0.178674 0.035686 0.0843558 55.845 -3.34739e-07 
513 1 0.214286 0.0357143 0.0416667 55.845 2.86764e-07 
514 1 0.214291 0.0714981 0.084332 55.845 -4.00368e-07 
515 1 0.25 0.0714286 0.0416667 55.845 1.34525e-07 
516 1 0.249799 0.107129 0.0840249 55.845 -1.631e-07 
526 1 0.214365 -8.54936e-05 0.0841195 55.845 -3.16731e-07 
528 1 0.250013 0.0357615 0.0840466 55.845 -2.56719e-07 
581 1 0.142857 0.0714286 0 55.845 -1.85957e-07 
582 1 0.178571 0.107143 0 55.845 -3.37613e-07 
586 1 0.142857 0 0 55.845 3.12474e-08 
587 1 0.178571 0.0357143 0 55.845 -1.81546e-07 
588 1 0.214286 0.0714286 0 55.845 -3.29362e-07 
589 1 0.25 0.107143 0 55.845 -2.91821e-07 
594 1 0.214286 0 0 55.845 1.45851e-07 
595 1 0.25 0.0357143 0 55.845 -1.31667e-07 
313 1 0.285793 0.107135 0.209284 55.845 3.25838e-07 
323 1 0.250027 -6.17791e-05 0.209328 55.845 3.84795e-07 
325 1 0.285762 0.0356815 0.209281 55.845 4.40237e-07 
327 1 0.321388 0.0714294 0.209199 55.845 5.85254e-07 
329 1 0.357117 0.107185 0.209255 55.845 6.29371e-07 
337 1 0.321403 4.07472e-06 0.209269 55.845 3.70131e-07 
339 1 0.357182 0.0356792 0.20922 55.845 5.06576e-07 
415 1 0.285593 0.107132 0.126703 55.845 8.02511e-07 
425 1 0.250085 5.0412e-05 0.126972 55.845 4.28783e-07 
427 1 0.285744 0.0357282 0.126715 55.845 5.74526e-07 
428 1 0.285703 0.0713914 0.167891 55.845 -6.82845e-07 
429 1 0.321442 0.0715351 0.126763 55.845 7.73696e-07 
430 1 0.321426 0.107144 0.167983 55.845 -6.8024e-07 
431 1 0.357188 0.10705 0.126993 55.845 8.17457e-07 
439 1 0.32144 3.65637e-05 0.126886 55.845 5.3593e-07 
440 1 0.321367 0.0356917 0.167631 55.845 -7.26673e-07 
441 1 0.357142 0.0357534 0.127009 55.845 8.6387e-07 
442 1 0.357113 0.0714654 0.167952 55.845 -7.67246e-07 
517 1 0.285714 0.107143 0.0416667 55.845 1.18791e-07 
527 1 0.25 0 0.0416667 55.845 9.06524e-08 
529 1 0.285714 0.0357143 0.0416667 55.845 1.82065e-07 
530 1 0.28578 0.071383 0.0841421 55.845 -2.62525e-07 
531 1 0.321429 0.0714286 0.0416667 55.845 2.61561e-07 
532 1 0.321513 0.107148 0.0840681 55.845 -2.60111e-07 
533 1 0.357143 0.107143 0.0416667 55.845 2.44124e-07 
603 1 0.357143 0.0714286 0 55.845 -1.3068e-07 
541 1 0.321429 0 0.0416667 55.845 1.70264e-07 
542 1 0.321562 0.0356838 0.0840768 55.845 -1.94778e-07 
543 1 0.357143 0.0357143 0.0416667 55.845 2.56383e-07 
544 1 0.357227 0.0714404 0.0840377 55.845 -3.44603e-07 
602 1 0.321429 0.0357143 0 55.845 -8.51279e-08 
596 1 0.285714 0.0714286 0 55.845 -2.11695e-07 
597 1 0.321429 0.107143 0 55.845 -1.383e-07 
612 1 0.464286 0.0357143 0 55.845 -2.50686e-07 
611 1 0.428571 0 0 55.845 -3.20704e-07 
610 1 0.464286 0.107143 0 55.845 6.15587e-08 
609 1 0.428571 0.0714286 0 55.845 -1.63586e-07 
608 1 0.392857 0.0357143 0 55.845 -1.89809e-07 
341 1 0.392811 0.0715633 0.209182 55.845 6.71944e-07 
343 1 0.428565 0.107231 0.20921 55.845 4.65629e-07 
348 1 0.392831 -1.58607e-05 0.209523 55.845 7.43627e-07 
350 1 0.428519 0.0358537 0.209531 55.845 7.32007e-07 
352 1 0.464263 0.0714748 0.209415 55.845 4.26531e-07 
355 1 0.46428 -3.63899e-05 0.209387 55.845 7.72805e-07 
443 1 0.392869 0.071436 0.12685 55.845 7.37124e-07 
444 1 0.392826 0.107248 0.167942 55.845 -7.59493e-07 
445 1 0.428623 0.107135 0.126625 55.845 4.44939e-07 
604 1 0.392857 0.107143 0 55.845 -1.38774e-08 
450 1 0.392887 6.33086e-05 0.127089 55.845 1.0537e-06 
451 1 0.392876 0.0357471 0.168121 55.845 -1.12701e-06 
452 1 0.428619 0.0357666 0.127079 55.845 8.71573e-07 
453 1 0.428536 0.0715194 0.168129 55.845 -8.5876e-07 
454 1 0.46433 0.0714912 0.126951 55.845 4.95389e-07 
455 1 0.464427 0.107217 0.168002 55.845 -5.60346e-07 
456 1 0.42861 -4.47254e-05 0.168151 55.845 -1.18331e-06 
457 1 0.464286 3.05185e-05 0.127169 55.845 1.17675e-06 
458 1 0.464163 0.0356856 0.16806 55.845 -9.35086e-07 
545 1 0.392857 0.0714286 0.0416667 55.845 2.44937e-07 
546 1 0.392831 0.107191 0.0842144 55.845 -4.13181e-07 
547 1 0.428571 0.107143 0.0416667 55.845 2.2564e-07 
552 1 0.392857 0 0.0416667 55.845 2.04339e-07 
553 1 0.392924 0.0357226 0.0841842 55.845 -3.89601e-07 
554 1 0.428571 0.0357143 0.0416667 55.845 2.7363e-07 
555 1 0.428582 0.0713846 0.084128 55.845 -3.35621e-07 
556 1 0.464286 0.0714286 0.0416667 55.845 1.87955e-07 
557 1 0.464298 0.10725 0.0840339 55.845 -2.42234e-07 
558 1 0.428614 5.24618e-05 0.0842875 55.845 -3.67528e-07 
559 1 0.464286 0 0.0416667 55.845 3.49246e-07 
560 1 0.464315 0.0358401 0.0842142 55.845 -2.37507e-07 
255 1 2.21244e-05 0.178521 0.209259 55.845 5.95351e-07 
257 1 0.035742 0.214285 0.209136 55.845 3.5749e-07 
261 1 0.0358593 0.142851 0.209324 55.845 2.66706e-07 
263 1 0.0714528 0.178582 0.209261 55.845 2.48795e-07 
265 1 0.107145 0.214338 0.209214 55.845 1.69253e-07 
273 1 0.107269 0.142823 0.209181 55.845 6.86852e-08 
357 1 -6.50805e-05 0.178447 0.126896 55.845 3.38183e-07 
358 1 4.10185e-05 0.214199 0.167982 55.845 -7.50027e-07 
359 1 0.0357652 0.21432 0.127038 55.845 4.36938e-07 
360 1 0.03574 0.249985 0.167939 55.845 -3.55629e-07 
362 1 4.24966e-05 0.14287 0.167993 55.845 -6.43673e-07 
363 1 0.0357741 0.142839 0.126992 55.845 3.97123e-07 
364 1 0.0357141 0.178541 0.167927 55.845 -6.79844e-07 
365 1 0.0713626 0.178547 0.126874 55.845 4.42633e-07 
366 1 0.0715001 0.214241 0.16793 55.845 -4.63106e-07 
367 1 0.107159 0.214298 0.126894 55.845 7.70425e-07 
368 1 0.107224 0.249955 0.16783 55.845 -3.27271e-07 
374 1 0.0714734 0.142861 0.168138 55.845 -4.83685e-07 
375 1 0.107123 0.142806 0.126869 55.845 6.23444e-07 
376 1 0.10709 0.178579 0.167685 55.845 -4.52678e-07 
459 1 0 0.178571 0.0416667 55.845 1.55715e-07 
460 1 1.74815e-05 0.21429 0.0842983 55.845 -1.53571e-07 
461 1 0.0357143 0.214286 0.0416667 55.845 -1.19682e-08 
462 1 0.0357339 0.250104 0.0842376 55.845 -2.65292e-07 
464 1 -4.98234e-05 0.14287 0.0839103 55.845 -1.10721e-07 
465 1 0.0357143 0.142857 0.0416667 55.845 9.26968e-09 
466 1 0.0356865 0.178607 0.0841088 55.845 -1.09683e-07 
467 1 0.0714286 0.178571 0.0416667 55.845 2.94053e-08 
468 1 0.0714256 0.214266 0.0840765 55.845 -1.56823e-07 
469 1 0.107143 0.214286 0.0416667 55.845 6.18928e-08 
470 1 0.107187 0.250081 0.0839723 55.845 -1.84974e-07 
476 1 0.0713781 0.142937 0.0840563 55.845 -6.70523e-09 
477 1 0.107143 0.142857 0.0416667 55.845 6.23477e-08 
478 1 0.107077 0.178531 0.0839079 55.845 3.16216e-08 
561 1 0 0.214286 0 55.845 1.39487e-07 
562 1 0.0357143 0.25 0 55.845 3.30155e-08 
563 1 0 0.142857 0 55.845 1.71239e-07 
564 1 0.0357143 0.178571 0 55.845 1.56385e-07 
565 1 0.0714286 0.214286 0 55.845 -2.06569e-07 
566 1 0.107143 0.25 0 55.845 -1.57389e-07 
569 1 0.0714286 0.142857 0 55.845 -8.07057e-08 
570 1 0.107143 0.178571 0 55.845 -2.36263e-07 
275 1 0.142878 0.178592 0.20929 55.845 2.02191e-07 
277 1 0.178534 0.214365 0.209325 55.845 1.89554e-07 
287 1 0.178385 0.142885 0.209345 55.845 2.35482e-07 
289 1 0.214234 0.178547 0.209184 55.845 2.66232e-07 
291 1 0.249983 0.214273 0.208984 55.845 1.88136e-07 
301 1 0.249959 0.142911 0.209398 55.845 2.42003e-07 
377 1 0.142926 0.178575 0.126734 55.845 8.21994e-07 
378 1 0.142847 0.214277 0.167973 55.845 -5.36733e-07 
379 1 0.178552 0.21422 0.126848 55.845 6.7441e-07 
388 1 0.14294 0.142951 0.167888 55.845 -4.50706e-07 
389 1 0.17855 0.142828 0.126788 55.845 7.68699e-07 
390 1 0.178491 0.178566 0.16803 55.845 -5.93903e-07 
391 1 0.214237 0.178486 0.126846 55.845 6.31443e-07 
392 1 0.214226 0.214355 0.167932 55.845 -5.94977e-07 
393 1 0.24991 0.214317 0.126871 55.845 6.69949e-07 
402 1 0.214268 0.14292 0.168119 55.845 -5.61781e-07 
403 1 0.249934 0.143047 0.126892 55.845 5.30303e-07 
404 1 0.250008 0.178481 0.167944 55.845 -5.54056e-07 
479 1 0.142857 0.178571 0.0416667 55.845 -2.96406e-08 
480 1 0.142869 0.214281 0.0840141 55.845 -2.79596e-08 
481 1 0.178571 0.214286 0.0416667 55.845 -4.04037e-08 
490 1 0.142862 0.142905 0.0840723 55.845 2.42883e-08 
491 1 0.178571 0.142857 0.0416667 55.845 2.73784e-07 
492 1 0.178538 0.178516 0.0841151 55.845 1.80849e-07 
493 1 0.214286 0.178571 0.0416667 55.845 1.49379e-07 
494 1 0.214286 0.214261 0.0840463 55.845 -1.52598e-08 
495 1 0.25 0.214286 0.0416667 55.845 1.21425e-07 
504 1 0.214293 0.142854 0.0840804 55.845 2.21557e-08 
505 1 0.25 0.142857 0.0416667 55.845 2.25544e-07 
506 1 0.250037 0.178584 0.083963 55.845 1.33802e-07 
571 1 0.142857 0.214286 0 55.845 -2.61266e-07 
576 1 0.142857 0.142857 0 55.845 -2.12572e-07 
577 1 0.178571 0.178571 0 55.845 -3.56735e-07 
578 1 0.214286 0.214286 0 55.845 -3.12543e-07 
583 1 0.214286 0.142857 0 55.845 -3.49865e-07 
584 1 0.25 0.178571 0 55.845 -1.89844e-07 
303 1 0.285771 0.178511 0.209114 55.845 2.07956e-07 
305 1 0.321451 0.214297 0.209374 55.845 4.6013e-07 
315 1 0.321428 0.142933 0.209244 55.845 5.76247e-07 
317 1 0.357137 0.178482 0.209405 55.845 6.25262e-07 
405 1 0.28573 0.17864 0.126651 55.845 7.95143e-07 
406 1 0.285651 0.214263 0.167958 55.845 -5.82614e-07 
407 1 0.321332 0.214358 0.126963 55.845 7.84405e-07 
416 1 0.285741 0.142795 0.167752 55.845 -6.36996e-07 
417 1 0.321501 0.142865 0.126919 55.845 6.74416e-07 
418 1 0.321412 0.178574 0.167808 55.845 -8.33762e-07 
419 1 0.357152 0.17857 0.126817 55.845 7.22659e-07 
420 1 0.357184 0.214178 0.168029 55.845 -9.13467e-07 
432 1 0.357108 0.142784 0.167861 55.845 -7.64596e-07 
507 1 0.285714 0.178571 0.0416667 55.845 2.14077e-07 
508 1 0.285729 0.214299 0.0841877 55.845 -7.84802e-08 
509 1 0.321429 0.214286 0.0416667 55.845 1.66186e-07 
518 1 0.285697 0.142836 0.0841769 55.845 -6.48166e-08 
519 1 0.321429 0.142857 0.0416667 55.845 2.48142e-07 
520 1 0.321417 0.178574 0.0841381 55.845 -3.42798e-07 
521 1 0.357143 0.178571 0.0416667 55.845 2.32614e-07 
522 1 0.357234 0.214307 0.0841223 55.845 -3.2077e-07 
534 1 0.357264 0.142749 0.0841675 55.845 -3.08765e-07 
585 1 0.285714 0.214286 0 55.845 -1.62508e-07 
590 1 0.285714 0.142857 0 55.845 -2.59467e-07 
591 1 0.321429 0.178571 0 55.845 -1.4728e-07 
592 1 0.357143 0.214286 0 55.845 -1.57903e-07 
598 1 0.357143 0.142857 0 55.845 -2.41969e-07 
319 1 0.392882 0.214224 0.209436 55.845 6.62661e-07 
321 1 0.4286 0.24994 0.209216 55.845 6.89418e-07 
331 1 0.392858 0.142974 0.209172 55.845 6.19062e-07 
333 1 0.428655 0.178498 0.20947 55.845 4.88885e-07 
335 1 0.464334 0.214286 0.209382 55.845 5.56219e-07 
345 1 0.464408 0.142909 0.209237 55.845 2.45162e-07 
606 1 0.464286 0.178571 0 55.845 2.6288e-07 
421 1 0.392925 0.214244 0.126886 55.845 6.46425e-07 
422 1 0.392923 0.249936 0.168058 55.845 -8.02261e-07 
423 1 0.42846 0.249981 0.126775 55.845 6.25316e-07 
433 1 0.392937 0.142903 0.126868 55.845 5.36986e-07 
434 1 0.392942 0.17855 0.168027 55.845 -6.81568e-07 
435 1 0.428638 0.178626 0.126783 55.845 3.06852e-07 
436 1 0.428549 0.214186 0.168139 55.845 -7.53776e-07 
437 1 0.464306 0.214078 0.126821 55.845 2.15451e-07 
605 1 0.428571 0.142857 0 55.845 2.10762e-08 
446 1 0.42858 0.142782 0.1679 55.845 -6.25833e-07 
447 1 0.464368 0.142755 0.126864 55.845 1.76201e-07 
448 1 0.46425 0.17848 0.167832 55.845 -3.91417e-07 
523 1 0.392857 0.214286 0.0416667 55.845 1.96272e-07 
524 1 0.392788 0.24996 0.0840939 55.845 -3.79825e-07 
525 1 0.428571 0.25 0.0416667 55.845 3.24638e-07 
535 1 0.392857 0.142857 0.0416667 55.845 2.78591e-07 
536 1 0.392945 0.178592 0.0839916 55.845 -5.2001e-07 
537 1 0.428571 0.178571 0.0416667 55.845 2.84567e-07 
538 1 0.428581 0.214229 0.0841292 55.845 -1.91619e-07 
539 1 0.464286 0.214286 0.0416667 55.845 8.06105e-08 
548 1 0.428623 0.142925 0.0839561 55.845 -2.02148e-07 
549 1 0.464286 0.142857 0.0416667 55.845 1.55828e-07 
550 1 0.464355 0.17852 0.0838382 55.845 -1.46859e-07 
593 1 0.392857 0.25 0 55.845 -1.60158e-08 
599 1 0.392857 0.178571 0 55.845 8.56389e-08 
600 1 0.428571 0.214286 0 55.845 5.17956e-08 
3 1 -1.23787e-05 0.107112 0.458095 55.845 5.75204e-07 
7 1 -6.49065e-05 0.0356809 0.457949 55.845 4.82279e-07 
8 1 0.0356102 0.0714024 0.458121 55.845 3.61887e-07 
9 1 0.07146 0.106969 0.458075 55.845 3.18855e-07 
13 1 0.0357874 6.71093e-05 0.458007 55.845 2.62369e-07 
14 1 0.0714665 0.0357193 0.458088 55.845 3.89053e-07 
15 1 0.107229 0.071364 0.458014 55.845 3.29822e-07 
20 1 0.10726 -6.7537e-05 0.458016 55.845 5.48808e-07 
55 1 -2.0371e-06 0.107148 0.375676 55.845 1.61023e-07 
63 1 -5.07445e-05 0.0357386 0.375414 55.845 2.89255e-07 
64 1 -0.000119746 0.0712863 0.416733 55.845 -6.69041e-07 
65 1 0.03553 0.0712694 0.375584 55.845 1.85649e-09 
66 1 0.0356307 0.107134 0.416689 55.845 -5.32685e-07 
67 1 0.0714305 0.10723 0.375509 55.845 -4.81146e-08 
74 1 3.36361e-05 -0.000116543 0.416578 55.845 -4.29864e-07 
75 1 0.0356819 -1.92006e-05 0.375495 55.845 3.62149e-07 
76 1 0.0357121 0.0356833 0.416794 55.845 -4.868e-07 
77 1 0.0714893 0.0356388 0.375428 55.845 6.10329e-09 
78 1 0.0714394 0.0713762 0.416533 55.845 -3.4348e-07 
79 1 0.107153 0.0712405 0.37556 55.845 1.38557e-07 
80 1 0.107183 0.107156 0.416679 55.845 -2.39787e-07 
88 1 0.0715124 6.71619e-05 0.416524 55.845 -4.96745e-07 
89 1 0.107252 -7.27782e-05 0.375536 55.845 2.41535e-07 
90 1 0.107212 0.0356361 0.41683 55.845 -4.59749e-07 
157 1 6.49185e-05 0.107228 0.293603 55.845 6.28685e-07 
165 1 -3.80348e-05 0.0358123 0.293569 55.845 5.0433e-07 
166 1 -9.23514e-05 0.0715012 0.334937 55.845 -2.95313e-07 
167 1 0.0357393 0.0713964 0.293577 55.845 5.15566e-07 
168 1 0.035687 0.10724 0.335084 55.845 -1.30168e-07 
169 1 0.0713491 0.107063 0.293786 55.845 6.19341e-07 
176 1 -4.54677e-05 6.31053e-05 0.334904 55.845 1.48862e-08 
177 1 0.035715 -0.000137156 0.293516 55.845 6.32117e-07 
178 1 0.0356695 0.0357317 0.334833 55.845 -1.02516e-07 
179 1 0.0713164 0.0357128 0.293577 55.845 6.77245e-07 
180 1 0.0713742 0.0713975 0.335158 55.845 5.58708e-08 
181 1 0.10705 0.0713964 0.293624 55.845 4.40178e-07 
182 1 0.107117 0.107168 0.335326 55.845 1.27728e-07 
190 1 0.0714091 -4.85136e-05 0.334918 55.845 -1.15131e-07 
191 1 0.107178 -2.18828e-05 0.293392 55.845 5.69392e-07 
192 1 0.107188 0.0356781 0.334951 55.845 -8.85327e-08 
268 1 -1.04703e-05 0.0714873 0.251098 55.845 -2.79448e-07 
270 1 0.0358241 0.107165 0.251097 55.845 -2.60056e-07 
278 1 -7.30803e-05 3.70396e-05 0.250936 55.845 -5.73239e-07 
280 1 0.0357451 0.0356305 0.251064 55.845 -4.38539e-07 
282 1 0.0714 0.0713874 0.251197 55.845 -2.28873e-07 
284 1 0.107049 0.107209 0.251201 55.845 -2.45616e-07 
292 1 0.0713702 -3.3375e-05 0.251159 55.845 -4.69827e-07 
294 1 0.107103 0.0356986 0.251343 55.845 -4.31644e-07 
16 1 0.142847 0.107116 0.458015 55.845 2.08727e-07 
21 1 0.142874 0.0355415 0.458228 55.845 3.87714e-07 
22 1 0.178613 0.0714334 0.458142 55.845 3.84397e-07 
23 1 0.214302 0.107046 0.45784 55.845 3.71715e-07 
27 1 0.178629 -1.9622e-05 0.45801 55.845 6.82345e-07 
28 1 0.214351 0.0357977 0.457936 55.845 4.70276e-07 
29 1 0.250072 0.0713857 0.458094 55.845 6.15186e-07 
81 1 0.142837 0.10707 0.375564 55.845 1.3877e-07 
91 1 0.142964 0.0356094 0.375769 55.845 1.21827e-07 
92 1 0.142916 0.0712773 0.41683 55.845 -3.06585e-07 
93 1 0.178585 0.0713728 0.375645 55.845 1.10465e-07 
94 1 0.178536 0.107108 0.416752 55.845 -4.45559e-07 
95 1 0.21427 0.107109 0.375381 55.845 4.20607e-07 
102 1 0.14288 -9.55247e-05 0.416639 55.845 -6.08029e-07 
103 1 0.178575 -3.17642e-05 0.3757 55.845 6.93119e-08 
104 1 0.178643 0.0357155 0.416861 55.845 -2.5765e-07 
105 1 0.214359 0.0357062 0.375536 55.845 3.25115e-07 
106 1 0.214314 0.0714021 0.416763 55.845 -5.27422e-07 
107 1 0.250033 0.0714188 0.375297 55.845 5.44671e-07 
108 1 0.25 0.107047 0.416682 55.845 -7.64795e-07 
118 1 0.214416 4.83224e-05 0.416704 55.845 -6.35004e-07 
120 1 0.250094 0.035761 0.416637 55.845 -5.72538e-07 
183 1 0.142755 0.107217 0.293666 55.845 5.39794e-07 
193 1 0.142839 0.0356591 0.293729 55.845 6.98349e-07 
194 1 0.142868 0.071428 0.335156 55.845 -1.0392e-07 
195 1 0.178441 0.0714587 0.293602 55.845 5.88085e-07 
196 1 0.178615 0.10711 0.334959 55.845 -1.08538e-07 
197 1 0.214342 0.10711 0.293628 55.845 7.3163e-07 
204 1 0.142921 -5.32169e-05 0.334863 55.845 -3.79706e-07 
205 1 0.178514 -1.05053e-05 0.293556 55.845 8.02722e-07 
206 1 0.178588 0.0356403 0.335083 55.845 -5.12847e-07 
207 1 0.214365 0.0357071 0.29346 55.845 7.95125e-07 
208 1 0.214254 0.0713106 0.334941 55.845 -2.89343e-07 
209 1 0.250098 0.0714543 0.293569 55.845 6.80175e-07 
210 1 0.249953 0.107211 0.335031 55.845 -3.60506e-07 
220 1 0.214192 0.000122263 0.335135 55.845 -4.71107e-07 
222 1 0.249933 0.0356688 0.334728 55.845 -4.88147e-07 
296 1 0.142776 0.0713953 0.251259 55.845 -4.48199e-07 
298 1 0.178515 0.107137 0.25118 55.845 -6.08609e-07 
306 1 0.142783 5.51144e-05 0.251099 55.845 -4.57287e-07 
308 1 0.178555 0.0357979 0.2512 55.845 -5.56015e-07 
310 1 0.21423 0.0715098 0.250986 55.845 -6.14027e-07 
312 1 0.249937 0.107285 0.251222 55.845 -6.43198e-07 
322 1 0.214244 -6.38459e-05 0.251189 55.845 -3.19201e-07 
324 1 0.250004 0.0357656 0.250978 55.845 -3.48817e-07 
30 1 0.285571 0.107082 0.457864 55.845 4.76137e-07 
35 1 0.250078 -4.37444e-05 0.458202 55.845 8.49374e-07 
36 1 0.28579 0.0356946 0.458002 55.845 5.5628e-07 
37 1 0.321566 0.0713661 0.458245 55.845 3.86777e-07 
38 1 0.357215 0.107212 0.457964 55.845 6.99155e-07 
42 1 0.321475 7.5045e-06 0.458125 55.845 4.41401e-07 
43 1 0.357209 0.0356704 0.458008 55.845 4.76785e-07 
109 1 0.285799 0.10722 0.375652 55.845 5.89168e-07 
119 1 0.250007 5.81761e-05 0.37558 55.845 3.08356e-07 
121 1 0.285722 0.0357387 0.375386 55.845 2.59556e-07 
122 1 0.28575 0.0713305 0.416758 55.845 -6.71114e-07 
123 1 0.321563 0.0715338 0.375523 55.845 3.7355e-07 
124 1 0.321428 0.107158 0.41677 55.845 -6.31526e-07 
125 1 0.357234 0.10718 0.375637 55.845 3.09468e-07 
133 1 0.321452 2.1031e-05 0.375496 55.845 1.9079e-07 
134 1 0.321376 0.0356851 0.416741 55.845 -6.24076e-07 
135 1 0.357196 0.0356282 0.375412 55.845 8.01615e-08 
136 1 0.3572 0.0713916 0.416408 55.845 -5.92477e-07 
211 1 0.285732 0.107201 0.293404 55.845 9.09734e-07 
221 1 0.249911 -7.66447e-05 0.293496 55.845 6.29705e-07 
223 1 0.285674 0.0357059 0.293466 55.845 6.11923e-07 
224 1 0.285797 0.0714425 0.335077 55.845 -4.74896e-07 
225 1 0.321475 0.0714439 0.293575 55.845 6.56759e-07 
226 1 0.321506 0.10726 0.335108 55.845 -6.00776e-07 
227 1 0.357109 0.107161 0.293504 55.845 9.33869e-07 
235 1 0.321473 4.55971e-05 0.293487 55.845 4.29889e-07 
236 1 0.321458 0.0357793 0.334929 55.845 -4.03498e-07 
237 1 0.357156 0.0357443 0.293336 55.845 8.7098e-07 
238 1 0.357266 0.071481 0.33514 55.845 -6.49438e-07 
326 1 0.285701 0.0714028 0.251182 55.845 -5.24595e-07 
328 1 0.321448 0.107214 0.251105 55.845 -7.13726e-07 
338 1 0.321449 0.0356506 0.251095 55.845 -5.58955e-07 
340 1 0.357104 0.0713825 0.251139 55.845 -6.40005e-07 
44 1 0.392958 0.0713671 0.458041 55.845 4.15826e-07 
45 1 0.428658 0.107198 0.45802 55.845 6.30735e-07 
47 1 0.392852 8.47278e-06 0.457986 55.845 7.48905e-08 
48 1 0.428596 0.0357201 0.457934 55.845 5.32865e-07 
49 1 0.46435 0.0714544 0.458046 55.845 6.71396e-07 
50 1 0.464333 0.000178399 0.458014 55.845 2.12357e-07 
137 1 0.392968 0.071438 0.375526 55.845 3.51282e-07 
138 1 0.392935 0.107158 0.416716 55.845 -7.23184e-07 
139 1 0.428654 0.107113 0.375559 55.845 2.44583e-07 
144 1 0.392919 0.000118007 0.375472 55.845 4.58511e-07 
145 1 0.392902 0.0356559 0.416609 55.845 -3.96922e-07 
146 1 0.428533 0.0356918 0.375472 55.845 2.75696e-07 
147 1 0.428511 0.0713599 0.416802 55.845 -7.40681e-07 
148 1 0.46423 0.0714387 0.375535 55.845 2.76568e-07 
149 1 0.464339 0.107154 0.41668 55.845 -7.95237e-07 
150 1 0.428617 -3.07141e-05 0.416749 55.845 -5.38484e-07 
151 1 0.464366 0.000114111 0.375635 55.845 2.88186e-07 
152 1 0.464245 0.0357761 0.416758 55.845 -7.02879e-07 
239 1 0.392857 0.0714898 0.293422 55.845 7.91874e-07 
240 1 0.392926 0.10726 0.335049 55.845 -5.0893e-07 
241 1 0.428672 0.107113 0.2934 55.845 6.15223e-07 
246 1 0.392849 -2.99136e-05 0.293445 55.845 8.77454e-07 
247 1 0.392866 0.0358023 0.334825 55.845 -3.62845e-07 
248 1 0.428544 0.0356796 0.293414 55.845 9.42474e-07 
249 1 0.428658 0.0714462 0.334923 55.845 -4.33267e-07 
250 1 0.464364 0.071382 0.293519 55.845 8.39651e-07 
251 1 0.46439 0.107172 0.334988 55.845 -4.6518e-07 
252 1 0.428606 -5.2121e-05 0.334944 55.845 -2.81068e-07 
253 1 0.464374 -1.0613e-05 0.293391 55.845 8.6334e-07 
254 1 0.464355 0.0358388 0.334747 55.845 -3.54065e-07 
342 1 0.392794 0.107146 0.251033 55.845 -5.49811e-07 
349 1 0.392907 0.0357511 0.250827 55.845 -8.95345e-07 
351 1 0.428622 0.0715181 0.251021 55.845 -5.85736e-07 
353 1 0.464409 0.107195 0.251008 55.845 -3.23596e-07 
354 1 0.428562 -9.90502e-05 0.250953 55.845 -9.77265e-07 
356 1 0.464284 0.0357259 0.251175 55.845 -8.56176e-07 
1 1 -7.77928e-05 0.17851 0.458251 55.845 8.50283e-07 
2 1 0.0356187 0.214305 0.458075 55.845 7.86221e-07 
4 1 0.0356678 0.14271 0.458364 55.845 5.7693e-07 
5 1 0.0715054 0.178686 0.458133 55.845 8.26233e-07 
6 1 0.107141 0.21431 0.458082 55.845 4.06526e-07 
10 1 0.10713 0.142854 0.457884 55.845 3.11417e-07 
51 1 3.15467e-05 0.178606 0.37576 55.845 -3.43964e-08 
52 1 3.21294e-05 0.214337 0.416863 55.845 -6.64009e-07 
53 1 0.0357204 0.214263 0.375616 55.845 8.64549e-08 
54 1 0.0357265 0.24993 0.416939 55.845 -5.03189e-07 
56 1 3.71942e-05 0.14288 0.416889 55.845 -6.31556e-07 
57 1 0.0356954 0.14292 0.375732 55.845 9.72498e-08 
58 1 0.0356771 0.178578 0.417018 55.845 -7.08078e-07 
59 1 0.0714486 0.178663 0.375647 55.845 1.7657e-07 
60 1 0.0714276 0.214299 0.416915 55.845 -5.65663e-07 
61 1 0.107138 0.214271 0.375677 55.845 2.1456e-07 
62 1 0.107183 0.250068 0.416727 55.845 -3.56325e-07 
68 1 0.0712812 0.142838 0.416871 55.845 -4.29964e-07 
69 1 0.107048 0.142992 0.375519 55.845 3.65765e-07 
70 1 0.107222 0.178547 0.416566 55.845 -4.01374e-07 
153 1 -0.000115737 0.178564 0.293436 55.845 4.15462e-07 
154 1 -2.32836e-05 0.214252 0.334964 55.845 -1.46161e-07 
155 1 0.0357923 0.214438 0.293347 55.845 1.92249e-07 
156 1 0.0357745 0.249984 0.335196 55.845 -7.25166e-08 
158 1 2.9138e-05 0.142956 0.33503 55.845 -3.70593e-07 
159 1 0.0357876 0.14287 0.293493 55.845 4.09676e-07 
160 1 0.0356663 0.178563 0.335044 55.845 3.63769e-09 
161 1 0.0713618 0.17858 0.293451 55.845 2.40869e-07 
162 1 0.0713387 0.214288 0.335156 55.845 -1.52174e-07 
163 1 0.107028 0.214385 0.293166 55.845 3.61923e-07 
164 1 0.107042 0.249975 0.335144 55.845 -3.35994e-07 
170 1 0.0714085 0.142831 0.334989 55.845 8.17182e-08 
171 1 0.107211 0.142913 0.293599 55.845 3.18708e-07 
172 1 0.107125 0.178554 0.335066 55.845 2.4664e-08 
256 1 0.000107338 0.214332 0.25099 55.845 1.47947e-08 
258 1 0.0356579 0.250025 0.251096 55.845 -1.54176e-08 
260 1 0.000104365 0.14282 0.251263 55.845 -1.20226e-07 
262 1 0.035757 0.178591 0.250968 55.845 -2.43294e-07 
264 1 0.0714261 0.214336 0.251001 55.845 -4.31947e-08 
266 1 0.10722 0.25003 0.25108 55.845 -3.69252e-07 
272 1 0.0716316 0.142862 0.251143 55.845 -2.39096e-08 
274 1 0.107068 0.178656 0.251111 55.845 -1.72302e-07 
11 1 0.142835 0.178605 0.457976 55.845 4.58272e-07 
12 1 0.178555 0.214277 0.457938 55.845 4.91941e-07 
17 1 0.178566 0.142942 0.458046 55.845 4.63912e-07 
18 1 0.214162 0.178557 0.457928 55.845 4.59423e-07 
19 1 0.249933 0.214244 0.458016 55.845 5.50781e-07 
24 1 0.249967 0.142914 0.458076 55.845 6.4009e-07 
71 1 0.142839 0.178586 0.375503 55.845 2.51546e-07 
72 1 0.14293 0.214335 0.416648 55.845 -5.71091e-07 
73 1 0.178616 0.214323 0.375503 55.845 3.05866e-07 
82 1 0.142825 0.142843 0.416594 55.845 -4.87184e-07 
83 1 0.178477 0.14289 0.375477 55.845 3.02302e-07 
84 1 0.178674 0.178684 0.416696 55.845 -7.68046e-07 
85 1 0.21421 0.178515 0.375432 55.845 7.6848e-07 
86 1 0.214303 0.214308 0.416721 55.845 -7.33233e-07 
87 1 0.250054 0.214234 0.375715 55.845 5.18449e-07 
96 1 0.21432 0.142785 0.416607 55.845 -9.38636e-07 
97 1 0.249957 0.142827 0.375387 55.845 6.89719e-07 
98 1 0.249922 0.17866 0.41678 55.845 -9.15225e-07 
173 1 0.142857 0.178691 0.293358 55.845 2.52848e-07 
174 1 0.14275 0.214348 0.33486 55.845 -1.37542e-07 
175 1 0.178618 0.214362 0.293411 55.845 4.93625e-07 
184 1 0.14276 0.142901 0.335088 55.845 1.29373e-07 
185 1 0.178483 0.142913 0.293552 55.845 4.78905e-07 
186 1 0.17856 0.178672 0.334945 55.845 1.14377e-07 
187 1 0.214342 0.178601 0.29349 55.845 6.83177e-07 
188 1 0.214289 0.214373 0.335048 55.845 -7.87214e-08 
189 1 0.249844 0.21432 0.293652 55.845 8.72466e-07 
198 1 0.214297 0.142875 0.334962 55.845 -2.70854e-08 
199 1 0.250009 0.142968 0.293461 55.845 8.5833e-07 
200 1 0.250019 0.178644 0.33513 55.845 -2.7518e-07 
276 1 0.142858 0.214334 0.251056 55.845 -3.28323e-07 
286 1 0.142848 0.142915 0.251264 55.845 -2.2609e-07 
288 1 0.178561 0.178592 0.251077 55.845 -5.0606e-07 
290 1 0.21427 0.214295 0.25093 55.845 -4.94525e-07 
300 1 0.214124 0.142964 0.251177 55.845 -6.31515e-07 
302 1 0.250024 0.178609 0.251063 55.845 -6.34332e-07 
25 1 0.285762 0.17867 0.458116 55.845 4.38111e-07 
26 1 0.32161 0.214353 0.458204 55.845 4.41253e-07 
31 1 0.321336 0.142801 0.458117 55.845 5.9347e-07 
32 1 0.357149 0.178518 0.458215 55.845 7.07016e-07 
99 1 0.285665 0.17859 0.375798 55.845 7.10082e-07 
100 1 0.285743 0.214363 0.416928 55.845 -7.84397e-07 
101 1 0.321508 0.214346 0.375573 55.845 3.10274e-07 
110 1 0.285672 0.142889 0.416708 55.845 -8.121e-07 
111 1 0.32138 0.14285 0.37541 55.845 5.55066e-07 
112 1 0.321418 0.17861 0.416862 55.845 -7.4387e-07 
113 1 0.357155 0.178539 0.37566 55.845 4.86841e-07 
114 1 0.357279 0.214237 0.416747 55.845 -6.25791e-07 
126 1 0.357043 0.142903 0.416757 55.845 -6.83553e-07 
201 1 0.285638 0.178597 0.293639 55.845 8.47293e-07 
202 1 0.285721 0.214273 0.334983 55.845 -4.73572e-07 
203 1 0.321375 0.214274 0.293648 55.845 7.52428e-07 
212 1 0.285688 0.142906 0.335032 55.845 -5.06336e-07 
213 1 0.321402 0.142869 0.293376 55.845 9.23885e-07 
214 1 0.321419 0.178578 0.335284 55.845 -5.12433e-07 
215 1 0.357157 0.178469 0.293524 55.845 7.49574e-07 
216 1 0.357191 0.214256 0.335116 55.845 -4.27932e-07 