ITEM: TIMESTEP
2200
ITEM: NUMBER OF ATOMS
5880
ITEM: BOX BOUNDS pp pp ff
-27.9621 27.9621
-27.9621 27.9621
0 34.092
ITEM: ATOMS id type xs ys zs mass q 
259 1 1.73293e-05 0.107145 0.208756 55.845 4.21376e-07 
267 1 -2.41617e-05 0.0357356 0.208611 55.845 3.94155e-07 
269 1 0.0357341 0.0714873 0.208813 55.845 4.88666e-07 
271 1 0.0714421 0.107143 0.208762 55.845 1.53153e-07 
279 1 0.035729 -8.23562e-06 0.208714 55.845 5.26589e-07 
281 1 0.0715244 0.0357222 0.208782 55.845 5.98292e-07 
283 1 0.107196 0.0714151 0.208693 55.845 4.67593e-07 
293 1 0.107111 3.28302e-05 0.208777 55.845 3.86212e-07 
361 1 3.66059e-05 0.10719 0.124765 55.845 -3.48939e-07 
369 1 -6.4811e-06 0.0356988 0.124926 55.845 -4.02584e-07 
370 1 1.96611e-05 0.0714473 0.166705 55.845 -1.39162e-07 
371 1 0.0356944 0.0714805 0.124841 55.845 -1.85937e-07 
372 1 0.0358036 0.107147 0.16674 55.845 1.35911e-07 
373 1 0.0714041 0.107193 0.124541 55.845 -2.46602e-07 
380 1 6.68984e-05 -4.32733e-05 0.16686 55.845 -3.36679e-07 
381 1 0.0357141 -1.41821e-05 0.124665 55.845 -2.54766e-07 
382 1 0.0358042 0.0357499 0.166945 55.845 -9.72883e-08 
383 1 0.0713545 0.0357542 0.124857 55.845 -4.97205e-08 
384 1 0.0715204 0.0714792 0.166797 55.845 -2.43363e-07 
385 1 0.107183 0.0714219 0.124667 55.845 -9.4035e-08 
386 1 0.107143 0.107111 0.166756 55.845 -1.95177e-07 
394 1 0.0714216 6.00431e-05 0.166806 55.845 5.16384e-08 
395 1 0.107137 3.96367e-07 0.124742 55.845 -3.23805e-07 
396 1 0.107164 0.0357381 0.166839 55.845 -4.69264e-09 
463 1 0 0.107143 0.0416667 55.845 9.86175e-08 
471 1 0 0.0357143 0.0416667 55.845 8.35029e-08 
472 1 6.75283e-05 0.0714451 0.0829723 55.845 1.74574e-07 
473 1 0.0357143 0.0714286 0.0416667 55.845 3.23394e-07 
474 1 0.0356457 0.10721 0.0829115 55.845 1.53879e-07 
475 1 0.0714286 0.107143 0.0416667 55.845 6.59861e-08 
482 1 -3.03855e-05 2.56468e-05 0.0830469 55.845 3.04306e-07 
483 1 0.0357143 0 0.0416667 55.845 3.65606e-07 
484 1 0.0357206 0.0357631 0.0830961 55.845 5.45434e-07 
485 1 0.0714286 0.0357143 0.0416667 55.845 2.89375e-07 
486 1 0.0714189 0.0714539 0.0829438 55.845 5.11809e-07 
487 1 0.107143 0.0714286 0.0416667 55.845 1.58586e-08 
488 1 0.107181 0.10718 0.0829322 55.845 3.0078e-07 
496 1 0.0714739 2.07898e-06 0.0829718 55.845 4.90331e-07 
497 1 0.107143 0 0.0416667 55.845 2.81903e-07 
498 1 0.107134 0.0357285 0.0829571 55.845 5.09873e-07 
567 1 0 0.0714286 0 55.845 -6.34509e-08 
568 1 0.0357143 0.107143 0 55.845 1.14254e-08 
572 1 0 0 0 55.845 -2.41746e-07 
573 1 0.0357143 0.0357143 0 55.845 1.78424e-07 
574 1 0.0714286 0.0714286 0 55.845 5.78209e-08 
575 1 0.107143 0.107143 0 55.845 -2.3998e-07 
579 1 0.0714286 0 0 55.845 -2.34846e-07 
580 1 0.107143 0.0357143 0 55.845 -8.39588e-08 
285 1 0.142866 0.107137 0.208653 55.845 3.28269e-07 
295 1 0.142927 0.0356856 0.20876 55.845 5.81999e-07 
297 1 0.178519 0.0715092 0.208718 55.845 3.28588e-07 
299 1 0.214303 0.107166 0.208822 55.845 4.75754e-07 
307 1 0.178588 -3.51724e-05 0.208774 55.845 3.86309e-07 
309 1 0.214253 0.0357076 0.208849 55.845 2.88974e-07 
311 1 0.249922 0.0714687 0.208738 55.845 3.00011e-07 
387 1 0.142884 0.107152 0.124771 55.845 -1.03481e-07 
397 1 0.142931 0.0356816 0.124768 55.845 -2.85724e-07 
398 1 0.142862 0.0714332 0.166652 55.845 -1.25432e-07 
399 1 0.17858 0.0714435 0.124923 55.845 -1.07828e-07 
400 1 0.17859 0.107118 0.166845 55.845 1.57795e-07 
401 1 0.214351 0.107164 0.124744 55.845 -1.92559e-09 
408 1 0.142807 -2.53937e-05 0.166912 55.845 -1.02244e-07 
409 1 0.178589 -5.06323e-05 0.124674 55.845 -7.27197e-08 
410 1 0.178562 0.0356957 0.166725 55.845 -1.08182e-07 
411 1 0.214238 0.0356868 0.124707 55.845 -2.93474e-07 
412 1 0.21428 0.0713883 0.166815 55.845 1.15537e-07 
413 1 0.249945 0.0713889 0.124848 55.845 -3.55297e-07 
414 1 0.250013 0.107154 0.166782 55.845 3.45317e-08 
424 1 0.214277 4.23066e-05 0.166928 55.845 2.28358e-07 
426 1 0.249953 0.0357248 0.166843 55.845 -1.43917e-07 
489 1 0.142857 0.107143 0.0416667 55.845 -6.35467e-08 
499 1 0.142857 0.0357143 0.0416667 55.845 1.9463e-07 
500 1 0.14293 0.0714701 0.0829995 55.845 1.48805e-07 
501 1 0.178571 0.0714286 0.0416667 55.845 1.81157e-07 
502 1 0.178648 0.107093 0.0829591 55.845 1.19128e-07 
503 1 0.214286 0.107143 0.0416667 55.845 2.18561e-07 
510 1 0.14284 5.38557e-05 0.0829348 55.845 4.15225e-07 
511 1 0.178571 0 0.0416667 55.845 1.97052e-07 
512 1 0.178588 0.0357058 0.083031 55.845 3.32048e-07 
513 1 0.214286 0.0357143 0.0416667 55.845 -3.88746e-08 
514 1 0.214294 0.0714008 0.0830519 55.845 1.88127e-07 
515 1 0.25 0.0714286 0.0416667 55.845 -1.75209e-07 
516 1 0.250073 0.107105 0.0830041 55.845 3.8946e-09 
526 1 0.214255 -0.000108026 0.0829247 55.845 3.93516e-07 
528 1 0.249992 0.0357196 0.0829919 55.845 1.95148e-07 
581 1 0.142857 0.0714286 0 55.845 1.64625e-07 
582 1 0.178571 0.107143 0 55.845 4.28889e-07 
586 1 0.142857 0 0 55.845 -5.81856e-08 
587 1 0.178571 0.0357143 0 55.845 -1.2972e-07 
588 1 0.214286 0.0714286 0 55.845 1.21916e-07 
589 1 0.25 0.107143 0 55.845 1.33555e-09 
594 1 0.214286 0 0 55.845 -3.70311e-07 
595 1 0.25 0.0357143 0 55.845 -1.66041e-07 
313 1 0.285712 0.107086 0.208894 55.845 -7.76814e-08 
323 1 0.249999 -4.84457e-05 0.208794 55.845 3.30443e-07 
325 1 0.285723 0.0357157 0.208801 55.845 8.54715e-08 
327 1 0.321444 0.0713719 0.208767 55.845 2.54352e-08 
329 1 0.357166 0.107226 0.208758 55.845 1.4432e-07 
337 1 0.321425 9.26982e-06 0.208738 55.845 -9.44587e-09 
339 1 0.357089 0.035696 0.208752 55.845 1.89645e-07 
415 1 0.285752 0.107085 0.124793 55.845 -1.89215e-07 
425 1 0.250004 -1.25452e-05 0.12481 55.845 -1.51039e-07 
427 1 0.285687 0.0356794 0.124813 55.845 -3.91859e-07 
428 1 0.285669 0.0713962 0.166974 55.845 -2.94817e-07 
429 1 0.321369 0.0713993 0.12486 55.845 -1.43074e-07 
430 1 0.321365 0.107129 0.166984 55.845 1.60745e-08 
431 1 0.357155 0.107104 0.124843 55.845 -6.99441e-08 
439 1 0.321444 2.62015e-05 0.124864 55.845 -1.76573e-07 
440 1 0.321403 0.0357178 0.166839 55.845 2.4156e-08 
441 1 0.357133 0.0357029 0.124831 55.845 -1.00145e-07 
442 1 0.357152 0.0714311 0.166767 55.845 2.82923e-07 
517 1 0.285714 0.107143 0.0416667 55.845 -2.63351e-07 
527 1 0.25 0 0.0416667 55.845 2.31542e-07 
529 1 0.285714 0.0357143 0.0416667 55.845 1.86717e-07 
530 1 0.285698 0.0714073 0.0830557 55.845 -3.10376e-08 
531 1 0.321429 0.0714286 0.0416667 55.845 -2.66389e-07 
532 1 0.321484 0.107133 0.0829457 55.845 1.61893e-07 
533 1 0.357143 0.107143 0.0416667 55.845 -1.04403e-07 
603 1 0.357143 0.0714286 0 55.845 -4.65798e-08 
541 1 0.321429 0 0.0416667 55.845 7.73951e-08 
542 1 0.321414 0.0357348 0.0830906 55.845 4.36645e-08 
543 1 0.357143 0.0357143 0.0416667 55.845 7.9782e-09 
544 1 0.35715 0.0713915 0.083039 55.845 2.4328e-08 
602 1 0.321429 0.0357143 0 55.845 9.01202e-08 
596 1 0.285714 0.0714286 0 55.845 -1.38987e-07 
597 1 0.321429 0.107143 0 55.845 -7.21811e-08 
612 1 0.464286 0.0357143 0 55.845 -3.06835e-07 
611 1 0.428571 0 0 55.845 -1.4227e-07 
610 1 0.464286 0.107143 0 55.845 -5.4234e-08 
609 1 0.428571 0.0714286 0 55.845 1.75004e-07 
608 1 0.392857 0.0357143 0 55.845 1.46205e-07 
341 1 0.39283 0.0714653 0.208709 55.845 5.99686e-08 
343 1 0.428548 0.1072 0.208739 55.845 -1.46231e-07 
348 1 0.39285 -5.05103e-05 0.208718 55.845 -6.87406e-08 
350 1 0.428554 0.035698 0.208759 55.845 -1.95866e-07 
352 1 0.464242 0.0715074 0.208721 55.845 -7.19372e-08 
355 1 0.464233 8.28898e-05 0.208699 55.845 1.29787e-07 
443 1 0.392861 0.0714829 0.124874 55.845 5.82461e-08 
444 1 0.392835 0.107184 0.166853 55.845 -4.06179e-08 
445 1 0.428534 0.107134 0.124739 55.845 -3.83712e-07 
604 1 0.392857 0.107143 0 55.845 1.05038e-07 
450 1 0.392857 -3.8054e-05 0.124785 55.845 -9.05615e-08 
451 1 0.392856 0.0356895 0.166781 55.845 1.45554e-07 
452 1 0.428573 0.0356936 0.124753 55.845 1.62681e-07 
453 1 0.428547 0.0713865 0.166917 55.845 2.41225e-08 
454 1 0.464288 0.0714398 0.124822 55.845 4.88165e-08 
455 1 0.464257 0.107156 0.166768 55.845 -4.74341e-08 
456 1 0.428577 -1.79993e-05 0.16678 55.845 -7.49637e-08 
457 1 0.464239 -1.50339e-05 0.124811 55.845 -2.34403e-07 
458 1 0.464242 0.0357345 0.166834 55.845 5.96871e-08 
545 1 0.392857 0.0714286 0.0416667 55.845 3.44744e-08 
546 1 0.392858 0.107183 0.0828864 55.845 -2.03521e-07 
547 1 0.428571 0.107143 0.0416667 55.845 -1.73721e-07 
552 1 0.392857 0 0.0416667 55.845 1.80188e-07 
553 1 0.392935 0.0357549 0.0830782 55.845 4.88387e-07 
554 1 0.428571 0.0357143 0.0416667 55.845 1.33296e-07 
555 1 0.428579 0.0714713 0.0830345 55.845 3.40539e-07 
556 1 0.464286 0.0714286 0.0416667 55.845 1.31167e-07 
557 1 0.464288 0.107153 0.0829737 55.845 1.28101e-07 
558 1 0.428604 -1.91962e-05 0.0829622 55.845 7.08566e-08 
559 1 0.464286 0 0.0416667 55.845 -1.9946e-07 
560 1 0.464273 0.035731 0.0830251 55.845 1.06063e-07 
255 1 1.15504e-05 0.178634 0.208748 55.845 3.76076e-07 
257 1 0.035698 0.214151 0.208694 55.845 4.23206e-07 
261 1 0.035753 0.142843 0.208801 55.845 3.37702e-07 
263 1 0.0713921 0.178649 0.208755 55.845 4.65082e-07 
265 1 0.10715 0.214263 0.208898 55.845 4.90573e-07 
273 1 0.107156 0.142898 0.208718 55.845 7.79762e-08 
357 1 1.0813e-05 0.178562 0.124745 55.845 -1.98858e-07 
358 1 -3.15058e-05 0.214255 0.166809 55.845 -1.85278e-07 
359 1 0.0356922 0.214221 0.124787 55.845 -3.29846e-07 
360 1 0.0357785 0.249943 0.16679 55.845 -1.13278e-07 
362 1 7.40256e-05 0.142866 0.16702 55.845 1.88027e-07 
363 1 0.0356874 0.142947 0.124831 55.845 -2.56912e-07 
364 1 0.0357272 0.178499 0.16684 55.845 3.83097e-09 
365 1 0.0713903 0.178607 0.124846 55.845 -3.68298e-07 
366 1 0.0714671 0.214284 0.166851 55.845 -1.22774e-07 
367 1 0.107147 0.214338 0.124731 55.845 -3.71333e-07 
368 1 0.107132 0.249872 0.166759 55.845 -2.438e-08 
374 1 0.0714624 0.142848 0.166853 55.845 -2.20496e-07 
375 1 0.107158 0.142898 0.124767 55.845 -1.0533e-07 
376 1 0.107159 0.178653 0.166875 55.845 -1.26996e-07 
459 1 0 0.178571 0.0416667 55.845 3.2117e-07 
460 1 1.4706e-07 0.214361 0.0829832 55.845 2.45048e-07 
461 1 0.0357143 0.214286 0.0416667 55.845 8.13185e-09 
462 1 0.035638 0.249996 0.0828642 55.845 2.8516e-07 
464 1 8.01044e-05 0.142857 0.0830957 55.845 3.66123e-07 
465 1 0.0357143 0.142857 0.0416667 55.845 -3.5269e-08 
466 1 0.0356884 0.178624 0.0829616 55.845 1.50663e-07 
467 1 0.0714286 0.178571 0.0416667 55.845 1.77406e-08 
468 1 0.0713752 0.214311 0.0829708 55.845 1.81376e-07 
469 1 0.107143 0.214286 0.0416667 55.845 2.56803e-07 
470 1 0.107116 0.250026 0.0829294 55.845 4.51012e-07 
476 1 0.0714261 0.142834 0.0830581 55.845 3.29707e-07 
477 1 0.107143 0.142857 0.0416667 55.845 7.98062e-08 
478 1 0.107206 0.178591 0.0829959 55.845 3.75353e-07 
561 1 0 0.214286 0 55.845 -1.33493e-07 
562 1 0.0357143 0.25 0 55.845 -2.65909e-07 
563 1 0 0.142857 0 55.845 1.18059e-07 
564 1 0.0357143 0.178571 0 55.845 -2.01542e-07 
565 1 0.0714286 0.214286 0 55.845 -3.67162e-07 
566 1 0.107143 0.25 0 55.845 2.75471e-08 
569 1 0.0714286 0.142857 0 55.845 -2.17925e-07 
570 1 0.107143 0.178571 0 55.845 -2.81361e-08 
275 1 0.142873 0.17855 0.208711 55.845 4.71523e-07 
277 1 0.17858 0.21422 0.20875 55.845 2.65556e-07 
287 1 0.178555 0.142826 0.208795 55.845 4.71459e-07 
289 1 0.214312 0.178517 0.20878 55.845 1.60161e-07 
291 1 0.25001 0.214248 0.208756 55.845 1.19735e-07 
301 1 0.250001 0.142786 0.208819 55.845 2.05318e-07 
377 1 0.142916 0.17855 0.124862 55.845 -1.10065e-07 
378 1 0.142815 0.21429 0.166732 55.845 -2.34887e-08 
379 1 0.178613 0.214318 0.124814 55.845 -2.13119e-07 
388 1 0.142871 0.142838 0.166818 55.845 6.58204e-08 
389 1 0.178656 0.142843 0.12478 55.845 -1.97936e-07 
390 1 0.178589 0.17859 0.166833 55.845 -1.05044e-07 
391 1 0.214261 0.178578 0.124857 55.845 -2.65561e-07 
392 1 0.2143 0.214253 0.16685 55.845 -4.44682e-07 
393 1 0.249999 0.214332 0.124792 55.845 -3.96319e-07 
402 1 0.214347 0.142849 0.166872 55.845 6.92184e-08 
403 1 0.250028 0.142851 0.124728 55.845 -1.09001e-07 
404 1 0.249981 0.178565 0.166809 55.845 -2.46996e-07 
479 1 0.142857 0.178571 0.0416667 55.845 1.46375e-07 
480 1 0.142938 0.214338 0.0829965 55.845 4.14797e-07 
481 1 0.178571 0.214286 0.0416667 55.845 4.14978e-08 
490 1 0.142894 0.142865 0.0830496 55.845 2.48992e-08 
491 1 0.178571 0.142857 0.0416667 55.845 2.63703e-08 
492 1 0.178618 0.17858 0.0830107 55.845 5.83481e-08 
493 1 0.214286 0.178571 0.0416667 55.845 7.04915e-08 
494 1 0.214282 0.214273 0.0830776 55.845 -9.79374e-08 
495 1 0.25 0.214286 0.0416667 55.845 1.62607e-08 
504 1 0.214282 0.142845 0.0828879 55.845 2.3297e-08 
505 1 0.25 0.142857 0.0416667 55.845 1.53709e-07 
506 1 0.250037 0.178598 0.0829397 55.845 2.10034e-07 
571 1 0.142857 0.214286 0 55.845 2.45487e-07 
576 1 0.142857 0.142857 0 55.845 -4.29879e-08 
577 1 0.178571 0.178571 0 55.845 5.64287e-08 
578 1 0.214286 0.214286 0 55.845 -1.05551e-07 
583 1 0.214286 0.142857 0 55.845 4.15865e-07 
584 1 0.25 0.178571 0 55.845 2.69358e-07 
303 1 0.285669 0.178596 0.208862 55.845 5.05113e-07 
305 1 0.321434 0.21425 0.208934 55.845 6.22911e-07 
315 1 0.321398 0.142837 0.208801 55.845 1.97018e-07 
317 1 0.357145 0.178556 0.208711 55.845 2.95852e-08 
405 1 0.285726 0.17856 0.124895 55.845 -1.43555e-07 
406 1 0.285681 0.214268 0.166945 55.845 7.04628e-08 
407 1 0.321406 0.214261 0.12475 55.845 -3.34236e-07 
416 1 0.285714 0.142846 0.166915 55.845 -1.21758e-07 
417 1 0.321463 0.14288 0.124945 55.845 7.36623e-08 
418 1 0.321483 0.178571 0.166862 55.845 9.00811e-08 
419 1 0.357185 0.178572 0.124792 55.845 -3.78622e-07 
420 1 0.357102 0.214329 0.166813 55.845 -2.84348e-07 
432 1 0.357142 0.142858 0.166828 55.845 -8.33271e-08 
507 1 0.285714 0.178571 0.0416667 55.845 1.02012e-07 
508 1 0.285732 0.214265 0.0829421 55.845 8.58072e-08 
509 1 0.321429 0.214286 0.0416667 55.845 -1.57683e-07 
518 1 0.285801 0.142882 0.0830634 55.845 2.01612e-07 
519 1 0.321429 0.142857 0.0416667 55.845 2.78759e-07 
520 1 0.321375 0.178537 0.0831225 55.845 1.14558e-07 
521 1 0.357143 0.178571 0.0416667 55.845 -4.24251e-08 
522 1 0.357176 0.214321 0.0830326 55.845 7.91747e-08 
534 1 0.357156 0.142863 0.0829838 55.845 2.1416e-07 
585 1 0.285714 0.214286 0 55.845 2.60658e-08 
590 1 0.285714 0.142857 0 55.845 1.25831e-07 
591 1 0.321429 0.178571 0 55.845 4.86133e-08 
592 1 0.357143 0.214286 0 55.845 -1.93303e-07 
598 1 0.357143 0.142857 0 55.845 6.98681e-08 
319 1 0.392835 0.214269 0.20884 55.845 -1.33379e-08 
321 1 0.428566 0.250088 0.208727 55.845 2.22959e-07 
331 1 0.392827 0.142851 0.208842 55.845 -6.86273e-10 
333 1 0.428536 0.178577 0.208831 55.845 1.45162e-07 
335 1 0.464322 0.214202 0.208856 55.845 3.40504e-07 
345 1 0.464205 0.142833 0.208834 55.845 1.36826e-07 
606 1 0.464286 0.178571 0 55.845 6.51393e-08 
421 1 0.392803 0.214311 0.124864 55.845 -1.43168e-07 
422 1 0.39289 0.250057 0.166875 55.845 -1.57833e-07 
423 1 0.428483 0.250044 0.124934 55.845 -2.64502e-07 
433 1 0.392816 0.142864 0.124731 55.845 -6.9861e-07 
434 1 0.392866 0.178576 0.166811 55.845 -1.70735e-07 
435 1 0.428548 0.178609 0.124716 55.845 -1.71208e-07 
436 1 0.428553 0.214278 0.166846 55.845 -6.75682e-08 
437 1 0.464256 0.214261 0.12482 55.845 -3.01e-08 
605 1 0.428571 0.142857 0 55.845 -4.07965e-07 
446 1 0.428558 0.14288 0.166737 55.845 -1.16879e-07 
447 1 0.464283 0.142853 0.124758 55.845 -2.72878e-07 
448 1 0.464227 0.178547 0.166897 55.845 4.15189e-08 
523 1 0.392857 0.214286 0.0416667 55.845 9.42748e-08 
524 1 0.392816 0.250012 0.0829674 55.845 3.23319e-07 
525 1 0.428571 0.25 0.0416667 55.845 3.77862e-08 
535 1 0.392857 0.142857 0.0416667 55.845 -4.31041e-07 
536 1 0.392868 0.178599 0.0830886 55.845 -8.61572e-08 
537 1 0.428571 0.178571 0.0416667 55.845 -2.49899e-07 
538 1 0.428564 0.214354 0.0829588 55.845 4.78144e-07 
539 1 0.464286 0.214286 0.0416667 55.845 2.19002e-07 
548 1 0.428507 0.142882 0.0830525 55.845 -3.59987e-07 
549 1 0.464286 0.142857 0.0416667 55.845 -2.89896e-08 
550 1 0.464261 0.178603 0.0829955 55.845 2.12546e-07 
593 1 0.392857 0.25 0 55.845 -1.50937e-07 
599 1 0.392857 0.178571 0 55.845 -4.35571e-07 
600 1 0.428571 0.214286 0 55.845 -4.09993e-08 
3 1 -5.83937e-05 0.107126 0.460296 55.845 -2.7679e-07 
7 1 -3.81267e-05 0.0357232 0.460352 55.845 -3.23713e-08 
8 1 0.0356819 0.0713853 0.460408 55.845 -1.37808e-07 
9 1 0.0713734 0.107214 0.46038 55.845 5.24968e-08 
13 1 0.0357033 -3.18137e-05 0.460315 55.845 -2.24109e-07 
14 1 0.0713772 0.0356881 0.460231 55.845 -1.60586e-07 
15 1 0.107203 0.0714483 0.460225 55.845 -1.90695e-07 
20 1 0.1071 2.47456e-05 0.460258 55.845 -1.90476e-08 
55 1 2.58977e-05 0.107153 0.37621 55.845 3.06355e-07 
63 1 1.22759e-05 0.0357143 0.376377 55.845 4.97439e-07 
64 1 3.59239e-05 0.0713604 0.418553 55.845 -2.94318e-07 
65 1 0.035724 0.0714047 0.376276 55.845 1.08324e-07 
66 1 0.0356587 0.107102 0.418518 55.845 -3.32465e-07 
67 1 0.0714332 0.107121 0.376368 55.845 1.41396e-07 
74 1 4.91316e-05 -2.5137e-05 0.418607 55.845 -1.88439e-07 
75 1 0.0357082 -1.68946e-06 0.37621 55.845 5.44287e-07 
76 1 0.0357578 0.0356685 0.418517 55.845 -2.22354e-08 
77 1 0.0713668 0.0357006 0.376212 55.845 2.20457e-07 
78 1 0.0713877 0.0713463 0.418556 55.845 -3.47997e-07 
79 1 0.107105 0.0713883 0.376214 55.845 -8.16703e-08 
80 1 0.107134 0.107141 0.418558 55.845 -1.72759e-07 
88 1 0.0713469 -7.08974e-05 0.418497 55.845 -3.48126e-08 
89 1 0.107129 -4.59651e-05 0.376302 55.845 4.48936e-07 
90 1 0.107122 0.0357093 0.41852 55.845 -2.48772e-07 
157 1 -3.71678e-05 0.107167 0.292526 55.845 -5.42638e-07 
165 1 -4.94404e-05 0.0357947 0.292508 55.845 -3.92004e-07 
166 1 2.43945e-05 0.0714938 0.334343 55.845 8.50866e-08 
167 1 0.0357345 0.071451 0.292552 55.845 -5.77609e-07 
168 1 0.0357691 0.107142 0.334292 55.845 -1.78661e-07 
169 1 0.0715185 0.107146 0.292603 55.845 -5.25129e-07 
176 1 -2.70178e-05 5.1832e-05 0.334409 55.845 -1.61967e-07 
177 1 0.0357252 -2.31264e-06 0.292501 55.845 -4.1511e-07 
178 1 0.0356631 0.0357592 0.334354 55.845 9.9535e-08 
179 1 0.0714732 0.0357101 0.292572 55.845 -5.63868e-07 
180 1 0.0714573 0.0714163 0.334357 55.845 -2.76061e-07 
181 1 0.107216 0.0714595 0.292557 55.845 -7.03415e-07 
182 1 0.107207 0.107145 0.334454 55.845 2.03629e-07 
190 1 0.0715077 6.76528e-06 0.334429 55.845 -1.11236e-07 
191 1 0.107178 -5.39147e-05 0.292454 55.845 -6.84578e-07 
192 1 0.10715 0.0356649 0.334386 55.845 -3.00698e-07 
268 1 9.72597e-05 0.0714134 0.250524 55.845 3.02785e-09 
270 1 0.0357636 0.107152 0.250583 55.845 1.28755e-07 
278 1 4.84066e-05 6.57335e-06 0.250673 55.845 9.45786e-08 
280 1 0.0357437 0.0357701 0.250692 55.845 -1.04064e-07 
282 1 0.0715368 0.0714799 0.250538 55.845 -1.69866e-07 
284 1 0.107157 0.107131 0.250764 55.845 8.17658e-08 
292 1 0.0713997 1.34194e-05 0.250642 55.845 3.18831e-07 
294 1 0.107157 0.0357303 0.250605 55.845 -4.59822e-08 
16 1 0.142871 0.107111 0.460391 55.845 7.17404e-09 
21 1 0.142797 0.035693 0.460345 55.845 -1.40164e-07 
22 1 0.178526 0.0714628 0.4604 55.845 -1.25008e-07 
23 1 0.214292 0.107134 0.460349 55.845 -1.02517e-07 
27 1 0.178541 2.4136e-06 0.460322 55.845 1.98493e-07 
28 1 0.214267 0.0357073 0.46048 55.845 -2.62913e-07 
29 1 0.249942 0.071453 0.460391 55.845 5.37291e-08 
81 1 0.14284 0.107076 0.37627 55.845 4.73067e-07 
91 1 0.142817 0.0356605 0.37623 55.845 -9.06176e-08 
92 1 0.142804 0.0714162 0.418588 55.845 -2.63637e-07 
93 1 0.17858 0.0713799 0.376388 55.845 3.27082e-07 
94 1 0.178499 0.107113 0.418646 55.845 -1.25671e-07 
95 1 0.214187 0.107127 0.376184 55.845 2.34542e-07 
102 1 0.142834 2.94229e-05 0.418689 55.845 -2.22229e-08 
103 1 0.178522 -2.15557e-05 0.376405 55.845 2.91318e-07 
104 1 0.178516 0.035664 0.418723 55.845 -4.39346e-07 
105 1 0.21431 0.0356907 0.376425 55.845 1.10032e-07 
106 1 0.214261 0.0714082 0.41858 55.845 -1.19023e-07 
107 1 0.249955 0.0714449 0.376275 55.845 2.23575e-07 
108 1 0.249961 0.107136 0.41865 55.845 -2.44317e-07 
118 1 0.214241 -3.59512e-05 0.418651 55.845 -3.80643e-07 
120 1 0.249906 0.0357319 0.418665 55.845 -2.5979e-07 
183 1 0.142886 0.107148 0.292561 55.845 -1.86172e-07 
193 1 0.142894 0.0357308 0.29262 55.845 -6.31799e-07 
194 1 0.142818 0.0713996 0.334321 55.845 -5.68503e-08 
195 1 0.178583 0.0714156 0.292549 55.845 -6.72575e-07 
196 1 0.178542 0.107057 0.334428 55.845 4.76917e-08 
197 1 0.214304 0.107095 0.292672 55.845 -4.94633e-07 
204 1 0.142886 -4.77732e-05 0.334501 55.845 -2.55876e-07 
205 1 0.178573 2.48804e-05 0.292626 55.845 -3.3235e-07 
206 1 0.178579 0.0356764 0.334461 55.845 1.23268e-08 
207 1 0.214294 0.0356818 0.292573 55.845 -1.8893e-07 
208 1 0.214267 0.0713652 0.33446 55.845 4.66531e-08 
209 1 0.249998 0.071454 0.292657 55.845 -1.09994e-07 
210 1 0.249909 0.107179 0.334572 55.845 4.99219e-08 
220 1 0.214279 -2.77193e-05 0.334485 55.845 -1.78893e-07 
222 1 0.249942 0.0356649 0.33447 55.845 3.95403e-08 
296 1 0.142912 0.071458 0.250694 55.845 -8.21661e-08 
298 1 0.178595 0.107126 0.250766 55.845 -5.95578e-08 
306 1 0.142852 -2.62299e-05 0.250696 55.845 5.46901e-08 
308 1 0.178568 0.0357938 0.250715 55.845 -7.07935e-08 
310 1 0.214268 0.0714654 0.250805 55.845 -5.62005e-08 
312 1 0.249931 0.107116 0.250663 55.845 3.21293e-07 
322 1 0.214325 -6.81454e-06 0.250776 55.845 4.22131e-07 
324 1 0.250049 0.035757 0.25072 55.845 2.45854e-07 
30 1 0.285788 0.107166 0.460516 55.845 -3.39452e-08 
35 1 0.250004 5.28639e-05 0.460401 55.845 -2.10055e-07 
36 1 0.285697 0.035677 0.460393 55.845 3.17604e-07 
37 1 0.321446 0.0713841 0.460425 55.845 1.40882e-07 
38 1 0.357148 0.107136 0.460397 55.845 -4.5188e-09 
42 1 0.321375 3.118e-05 0.46042 55.845 2.17568e-07 
43 1 0.357079 0.0357123 0.460498 55.845 -5.38899e-08 
109 1 0.285679 0.10714 0.376406 55.845 -1.72756e-08 
119 1 0.250025 -4.44879e-05 0.376375 55.845 2.06533e-07 
121 1 0.285646 0.0357325 0.376313 55.845 4.839e-07 
122 1 0.285641 0.0713174 0.4186 55.845 -4.56451e-08 
123 1 0.321452 0.0714221 0.376359 55.845 1.69703e-07 
124 1 0.321439 0.107126 0.418614 55.845 -3.0078e-07 
125 1 0.357145 0.10713 0.376346 55.845 1.70624e-07 
133 1 0.321409 -1.58654e-05 0.376332 55.845 2.79611e-07 
134 1 0.321397 0.0356951 0.418608 55.845 6.81552e-08 
135 1 0.357193 0.0357164 0.376365 55.845 -1.64195e-07 
136 1 0.357161 0.0714164 0.418613 55.845 -4.67919e-07 
211 1 0.285709 0.107111 0.292664 55.845 -1.85331e-07 
221 1 0.249952 -5.43733e-05 0.292554 55.845 -3.82074e-07 
223 1 0.285714 0.0356502 0.292707 55.845 -1.0106e-07 
224 1 0.285688 0.071416 0.33453 55.845 1.87127e-07 
225 1 0.321419 0.07136 0.292606 55.845 -4.9649e-07 
226 1 0.321359 0.107106 0.334461 55.845 1.51659e-07 
227 1 0.357078 0.107152 0.292609 55.845 -2.52234e-07 
235 1 0.321402 -5.4074e-06 0.292738 55.845 -4.8618e-07 
236 1 0.321427 0.0356993 0.334607 55.845 -3.37205e-08 
237 1 0.357153 0.0357955 0.292628 55.845 -4.8123e-07 
238 1 0.357106 0.0714874 0.334568 55.845 -2.2822e-07 
326 1 0.285652 0.0713601 0.250739 55.845 2.81658e-07 
328 1 0.321397 0.107062 0.250701 55.845 1.37186e-07 
338 1 0.321401 0.0356876 0.250741 55.845 2.1219e-07 
340 1 0.357134 0.0714987 0.250568 55.845 2.37526e-07 
44 1 0.392865 0.0714472 0.460411 55.845 -1.84423e-07 
45 1 0.428595 0.107277 0.460491 55.845 2.95562e-07 
47 1 0.392891 -5.65808e-05 0.460405 55.845 1.80615e-07 
48 1 0.428633 0.0356877 0.460474 55.845 -7.03789e-08 
49 1 0.46434 0.0714709 0.460437 55.845 2.39993e-07 
50 1 0.464272 3.82419e-06 0.460243 55.845 3.18399e-07 
137 1 0.392858 0.071448 0.376379 55.845 -1.62077e-07 
138 1 0.392911 0.107226 0.418638 55.845 -9.95177e-08 
139 1 0.428579 0.107119 0.376356 55.845 4.42062e-07 
144 1 0.392871 2.03273e-05 0.376274 55.845 1.10799e-07 
145 1 0.392829 0.0357483 0.418626 55.845 -4.59119e-07 
146 1 0.428569 0.0358228 0.376413 55.845 1.04494e-07 
147 1 0.428623 0.0714272 0.418688 55.845 -5.4627e-08 
148 1 0.464282 0.0714516 0.376321 55.845 2.20957e-07 
149 1 0.464264 0.10713 0.418605 55.845 1.69286e-07 
150 1 0.428563 2.53953e-05 0.418501 55.845 3.28292e-08 
151 1 0.464259 -2.66758e-05 0.376314 55.845 2.91067e-07 
152 1 0.464328 0.0357629 0.418507 55.845 -3.23888e-08 
239 1 0.392838 0.0714621 0.292526 55.845 -5.45194e-07 
240 1 0.392824 0.107126 0.334436 55.845 7.84508e-08 
241 1 0.428546 0.107188 0.292587 55.845 -2.40247e-07 
246 1 0.392814 1.8878e-05 0.292585 55.845 -3.27553e-07 
247 1 0.392948 0.0357319 0.334431 55.845 -3.63019e-07 
248 1 0.428558 0.0357216 0.292524 55.845 -3.12506e-07 
249 1 0.428586 0.0714023 0.334392 55.845 -9.34804e-08 
250 1 0.464264 0.0714628 0.292686 55.845 -2.66997e-07 
251 1 0.464271 0.107153 0.334482 55.845 1.37488e-07 
252 1 0.428499 3.98781e-05 0.334391 55.845 -1.64166e-07 
253 1 0.464287 -7.7014e-06 0.292606 55.845 -3.45594e-07 
254 1 0.464264 0.0356862 0.334471 55.845 -1.30893e-07 
342 1 0.392788 0.107141 0.25079 55.845 1.76836e-07 
349 1 0.392815 0.0357212 0.25058 55.845 2.35171e-07 
351 1 0.42855 0.0713703 0.250741 55.845 -3.21358e-08 
353 1 0.464211 0.107153 0.250731 55.845 9.19002e-08 
354 1 0.42854 -9.47729e-06 0.250596 55.845 5.25911e-07 
356 1 0.464338 0.0357259 0.250634 55.845 2.60025e-07 
1 1 1.94488e-05 0.178616 0.460455 55.845 -1.85313e-07 
2 1 0.0356978 0.214361 0.460445 55.845 8.28466e-08 
4 1 0.0356655 0.142929 0.460442 55.845 1.12596e-07 
5 1 0.0714284 0.178505 0.460403 55.845 2.36092e-07 
6 1 0.107116 0.214277 0.460394 55.845 -1.75609e-07 
10 1 0.107132 0.142882 0.460321 55.845 3.87671e-07 
51 1 1.45254e-05 0.178581 0.376392 55.845 4.96884e-07 
52 1 2.91217e-05 0.214348 0.418624 55.845 -1.6256e-07 
53 1 0.0356864 0.214304 0.37626 55.845 1.29751e-07 
54 1 0.0357427 0.250037 0.418667 55.845 -8.79449e-08 
56 1 4.6631e-05 0.142819 0.418623 55.845 -2.95258e-07 
57 1 0.0357171 0.142822 0.376232 55.845 4.14884e-07 
58 1 0.0357276 0.178641 0.418694 55.845 2.25092e-08 
59 1 0.0714463 0.178511 0.376371 55.845 3.04273e-07 
60 1 0.0713262 0.214274 0.418594 55.845 -1.20906e-07 
61 1 0.107141 0.21439 0.37646 55.845 4.62912e-08 
62 1 0.107122 0.250026 0.418669 55.845 -1.72811e-07 
68 1 0.0713342 0.14277 0.418507 55.845 1.77938e-07 
69 1 0.107217 0.142896 0.376358 55.845 5.51076e-07 
70 1 0.107103 0.178603 0.418661 55.845 6.71002e-08 
153 1 -8.43175e-06 0.178584 0.292726 55.845 -6.28765e-07 
154 1 -1.69117e-05 0.214283 0.334547 55.845 -1.00964e-07 
155 1 0.0357126 0.214283 0.292698 55.845 -5.5566e-07 
156 1 0.0357667 0.250073 0.334665 55.845 1.1297e-07 
158 1 2.51587e-05 0.142861 0.334423 55.845 -2.82862e-07 
159 1 0.0357636 0.142841 0.292677 55.845 -3.73431e-07 
160 1 0.03573 0.178621 0.334566 55.845 1.14032e-07 
161 1 0.071415 0.178653 0.292632 55.845 -4.46878e-07 
162 1 0.0714396 0.214292 0.334603 55.845 -1.34289e-07 
163 1 0.107146 0.214364 0.292759 55.845 -4.76017e-07 
164 1 0.107126 0.250014 0.334487 55.845 -4.02679e-07 
170 1 0.0714643 0.142866 0.334416 55.845 2.37876e-07 
171 1 0.107142 0.142945 0.292635 55.845 -8.76503e-08 
172 1 0.107149 0.178635 0.334513 55.845 1.36803e-07 
256 1 5.10108e-05 0.214279 0.2507 55.845 3.1987e-08 
258 1 0.0357102 0.249963 0.250715 55.845 1.08143e-07 
260 1 5.6882e-06 0.142907 0.250669 55.845 4.26648e-08 
262 1 0.0357362 0.1785 0.250776 55.845 7.5043e-08 
264 1 0.0714027 0.214369 0.250783 55.845 2.61514e-07 
266 1 0.107108 0.24999 0.250734 55.845 2.76179e-07 
272 1 0.071453 0.142906 0.250642 55.845 1.77397e-07 
274 1 0.107158 0.17864 0.250792 55.845 1.60752e-07 
11 1 0.142931 0.17855 0.460421 55.845 -1.40411e-07 
12 1 0.178574 0.214257 0.460538 55.845 -7.33255e-08 
17 1 0.178552 0.142849 0.460368 55.845 -3.40845e-07 
18 1 0.214275 0.178519 0.460454 55.845 -1.82413e-07 
19 1 0.249988 0.214304 0.460404 55.845 1.87585e-07 
24 1 0.250014 0.142893 0.460424 55.845 -2.90321e-07 
71 1 0.14286 0.178609 0.376419 55.845 -4.58503e-08 
72 1 0.142841 0.214362 0.418711 55.845 -2.16904e-07 
73 1 0.178532 0.214256 0.376477 55.845 1.97271e-07 
82 1 0.142901 0.142917 0.418626 55.845 -3.21067e-07 
83 1 0.178589 0.142805 0.376323 55.845 -2.14364e-07 
84 1 0.178561 0.178546 0.418608 55.845 -4.29956e-07 
85 1 0.21426 0.178597 0.376304 55.845 1.84178e-07 
86 1 0.214312 0.214202 0.418581 55.845 1.73818e-07 
87 1 0.249967 0.214337 0.376359 55.845 9.48197e-08 
96 1 0.214298 0.142821 0.41869 55.845 -3.51343e-07 
97 1 0.249969 0.142883 0.376303 55.845 1.11035e-07 
98 1 0.249983 0.178566 0.4186 55.845 5.9289e-08 
173 1 0.142795 0.178611 0.292612 55.845 -3.97149e-07 
174 1 0.142814 0.214297 0.334473 55.845 -2.1736e-07 
175 1 0.178619 0.214288 0.292598 55.845 -3.01889e-07 
184 1 0.14286 0.14288 0.334437 55.845 1.3446e-07 
185 1 0.178545 0.142887 0.292642 55.845 -6.00456e-07 
186 1 0.178535 0.178626 0.334509 55.845 7.37831e-08 
187 1 0.214275 0.178624 0.292594 55.845 -3.69915e-07 
188 1 0.214284 0.2143 0.334477 55.845 2.83957e-07 
189 1 0.249992 0.21428 0.292615 55.845 -4.84737e-07 
198 1 0.214243 0.142878 0.334509 55.845 -1.00892e-07 
199 1 0.249982 0.142802 0.292684 55.845 -2.76578e-07 
200 1 0.249989 0.178615 0.334464 55.845 8.49625e-08 
276 1 0.142932 0.214361 0.250759 55.845 1.66963e-07 
286 1 0.142846 0.142873 0.250621 55.845 1.56502e-07 
288 1 0.178542 0.178597 0.250699 55.845 -7.27776e-08 
290 1 0.214297 0.214315 0.250619 55.845 -1.73275e-08 
300 1 0.214195 0.142826 0.250764 55.845 6.97582e-08 
302 1 0.249997 0.178595 0.250675 55.845 -5.38075e-08 
25 1 0.285698 0.178579 0.460427 55.845 -2.20939e-07 
26 1 0.32146 0.214312 0.46043 55.845 -2.66151e-07 
31 1 0.321424 0.142861 0.460384 55.845 -5.46392e-08 
32 1 0.357134 0.178617 0.460444 55.845 1.0158e-07 
99 1 0.285663 0.178628 0.376348 55.845 -1.15873e-07 
100 1 0.285767 0.214372 0.418679 55.845 -1.87755e-07 
101 1 0.321408 0.214353 0.376333 55.845 1.05919e-07 
110 1 0.285745 0.142872 0.418492 55.845 -4.52797e-07 
111 1 0.321455 0.142935 0.376323 55.845 1.2946e-07 
112 1 0.321414 0.178652 0.418616 55.845 -1.80383e-07 
113 1 0.357115 0.178616 0.376391 55.845 1.46155e-07 
114 1 0.35715 0.214307 0.418577 55.845 -1.46176e-07 
126 1 0.357159 0.142916 0.418598 55.845 -1.20857e-08 
201 1 0.285697 0.178531 0.2926 55.845 -1.83466e-07 
202 1 0.285723 0.214303 0.334535 55.845 -1.02576e-07 
203 1 0.321444 0.214253 0.292706 55.845 -3.82516e-07 
212 1 0.28571 0.142836 0.334469 55.845 9.05936e-08 
213 1 0.32146 0.142827 0.29268 55.845 -9.2662e-08 
214 1 0.321358 0.178578 0.334475 55.845 1.12088e-07 
215 1 0.357155 0.17856 0.29259 55.845 -2.92543e-07 