ITEM: TIMESTEP
5000
ITEM: NUMBER OF ATOMS
5880
ITEM: BOX BOUNDS pp pp ff
-27.9187 27.9187
-27.9187 27.9187
0 34.092
ITEM: ATOMS id type xs ys zs mass q 
259 1 -3.15986e-05 0.107149 0.210757 55.845 -2.12535e-08 
267 1 -1.62609e-06 0.0356211 0.210757 55.845 1.2427e-07 
269 1 0.0356534 0.0714641 0.210741 55.845 1.14833e-07 
271 1 0.0714352 0.107122 0.210609 55.845 -9.53028e-09 
279 1 0.035758 -5.45718e-05 0.210751 55.845 -3.42823e-08 
281 1 0.0714036 0.035738 0.210674 55.845 -4.29976e-08 
283 1 0.107086 0.0713814 0.210629 55.845 9.08711e-09 
293 1 0.107137 -2.6905e-05 0.210681 55.845 -1.99638e-08 
361 1 -2.97363e-05 0.10711 0.127173 55.845 -2.52667e-07 
369 1 1.7145e-05 0.0357805 0.127223 55.845 -2.26269e-07 
370 1 3.85271e-05 0.0714477 0.168933 55.845 1.30593e-07 
371 1 0.0356357 0.0713913 0.12708 55.845 -3.63625e-08 
372 1 0.0357608 0.107089 0.16883 55.845 1.93986e-07 
373 1 0.071378 0.107113 0.126996 55.845 -8.9036e-08 
380 1 7.76153e-05 1.64955e-05 0.168701 55.845 1.00492e-08 
381 1 0.0356794 -1.88622e-05 0.12708 55.845 -3.83591e-07 
382 1 0.0357477 0.0357815 0.16887 55.845 -1.15547e-07 
383 1 0.0714681 0.0357135 0.127095 55.845 -2.79743e-07 
384 1 0.0714156 0.0714124 0.168833 55.845 8.09834e-08 
385 1 0.107131 0.0714359 0.126989 55.845 -2.00241e-07 
386 1 0.10704 0.107067 0.168714 55.845 1.15629e-07 
394 1 0.0714819 1.46408e-05 0.168644 55.845 -4.9522e-08 
395 1 0.107206 9.87325e-06 0.127126 55.845 -3.32848e-07 
396 1 0.1072 0.0356421 0.168698 55.845 -2.74897e-09 
463 1 0 0.107143 0.0416667 55.845 2.74763e-07 
471 1 0 0.0357143 0.0416667 55.845 1.07106e-07 
472 1 -6.73418e-05 0.071344 0.085107 55.845 2.84014e-07 
473 1 0.0357143 0.0714286 0.0416667 55.845 3.03774e-07 
474 1 0.0356171 0.107083 0.0850886 55.845 6.51341e-08 
475 1 0.0714286 0.107143 0.0416667 55.845 3.92324e-07 
482 1 -5.81622e-05 0.000105742 0.0852654 55.845 -3.26424e-08 
483 1 0.0357143 0 0.0416667 55.845 3.69094e-08 
484 1 0.0357167 0.0357174 0.0852418 55.845 -6.62667e-08 
485 1 0.0714286 0.0357143 0.0416667 55.845 1.03262e-07 
486 1 0.0713924 0.0714106 0.0852384 55.845 2.97697e-08 
487 1 0.107143 0.0714286 0.0416667 55.845 2.15804e-07 
488 1 0.107131 0.107155 0.0850686 55.845 -2.36939e-07 
496 1 0.0713952 -8.74933e-05 0.0853048 55.845 -1.04394e-07 
497 1 0.107143 0 0.0416667 55.845 1.52223e-07 
498 1 0.107126 0.0357017 0.085264 55.845 -1.51443e-07 
567 1 0 0.0714286 0 55.845 2.65274e-08 
568 1 0.0357143 0.107143 0 55.845 7.92866e-08 
572 1 0 0 0 55.845 -2.18507e-07 
573 1 0.0357143 0.0357143 0 55.845 5.04828e-08 
574 1 0.0714286 0.0714286 0 55.845 -7.3599e-08 
575 1 0.107143 0.107143 0 55.845 -9.63085e-08 
579 1 0.0714286 0 0 55.845 -1.2539e-07 
580 1 0.107143 0.0357143 0 55.845 -1.12901e-07 
285 1 0.142814 0.107115 0.210579 55.845 -1.05443e-07 
295 1 0.142896 0.0357078 0.210596 55.845 1.45271e-07 
297 1 0.178551 0.0714094 0.210674 55.845 6.41401e-08 
299 1 0.214281 0.107161 0.21056 55.845 8.05272e-08 
307 1 0.178646 5.90503e-05 0.210585 55.845 9.96236e-08 
309 1 0.214246 0.0357368 0.210641 55.845 -8.96554e-08 
311 1 0.249924 0.0713641 0.210593 55.845 -1.41813e-07 
387 1 0.142781 0.107152 0.126979 55.845 -2.06135e-07 
397 1 0.142917 0.0357652 0.126988 55.845 -1.67878e-07 
398 1 0.142811 0.0714359 0.168771 55.845 -1.43417e-08 
399 1 0.178579 0.0714953 0.127139 55.845 -2.11381e-07 
400 1 0.178577 0.107123 0.168775 55.845 3.36832e-09 
401 1 0.214274 0.107116 0.12694 55.845 -1.43378e-07 
408 1 0.142871 -3.03714e-05 0.168785 55.845 2.23777e-07 
409 1 0.178527 1.41888e-05 0.126889 55.845 -2.14875e-07 
410 1 0.178497 0.0357087 0.168768 55.845 8.14842e-08 
411 1 0.214267 0.0357284 0.127065 55.845 -3.90841e-07 
412 1 0.214264 0.0714643 0.168816 55.845 4.34134e-08 
413 1 0.250052 0.0714042 0.126966 55.845 -2.93502e-07 
414 1 0.250001 0.107086 0.168829 55.845 2.85678e-07 
424 1 0.214283 1.43273e-05 0.16879 55.845 1.37709e-07 
426 1 0.24994 0.0356532 0.168816 55.845 8.18898e-08 
489 1 0.142857 0.107143 0.0416667 55.845 2.90932e-07 
499 1 0.142857 0.0357143 0.0416667 55.845 1.65687e-07 
500 1 0.14284 0.0714752 0.0852708 55.845 -3.11753e-08 
501 1 0.178571 0.0714286 0.0416667 55.845 2.64858e-07 
502 1 0.178545 0.107148 0.0852412 55.845 -1.20886e-07 
503 1 0.214286 0.107143 0.0416667 55.845 3.88658e-07 
510 1 0.142809 2.78648e-05 0.0850875 55.845 8.45568e-08 
511 1 0.178571 0 0.0416667 55.845 2.62613e-07 
512 1 0.17864 0.035794 0.0850818 55.845 -7.32584e-08 
513 1 0.214286 0.0357143 0.0416667 55.845 1.79291e-07 
514 1 0.21423 0.0715016 0.0851234 55.845 2.89486e-09 
515 1 0.25 0.0714286 0.0416667 55.845 1.69474e-07 
516 1 0.249952 0.107157 0.0851735 55.845 -1.08264e-07 
526 1 0.214324 -2.74128e-05 0.0851335 55.845 3.79975e-08 
528 1 0.250062 0.0356396 0.0851 55.845 -1.77207e-07 
581 1 0.142857 0.0714286 0 55.845 -1.46406e-07 
582 1 0.178571 0.107143 0 55.845 3.25494e-08 
586 1 0.142857 0 0 55.845 -6.01981e-08 
587 1 0.178571 0.0357143 0 55.845 8.47682e-09 
588 1 0.214286 0.0714286 0 55.845 -1.53106e-07 
589 1 0.25 0.107143 0 55.845 -5.57444e-08 
594 1 0.214286 0 0 55.845 -1.12371e-07 
595 1 0.25 0.0357143 0 55.845 -1.14441e-07 
313 1 0.285755 0.107132 0.210559 55.845 5.11864e-08 
323 1 0.249947 -2.43295e-05 0.210651 55.845 -2.34793e-07 
325 1 0.285676 0.0357364 0.210698 55.845 -1.59274e-07 
327 1 0.321435 0.0714361 0.210635 55.845 -3.04295e-09 
329 1 0.35714 0.107235 0.210671 55.845 1.77101e-07 
337 1 0.321443 -8.01199e-05 0.210409 55.845 9.56306e-08 
339 1 0.357131 0.0356206 0.210646 55.845 7.5051e-08 
415 1 0.285728 0.107153 0.126993 55.845 -1.96821e-07 
425 1 0.250034 -4.75044e-05 0.127116 55.845 -2.98489e-07 
427 1 0.285737 0.0357855 0.127165 55.845 -2.51512e-07 
428 1 0.285734 0.0714679 0.168803 55.845 1.29461e-07 
429 1 0.321429 0.0714248 0.126962 55.845 -2.3138e-07 
430 1 0.321365 0.107127 0.168841 55.845 6.4359e-08 
431 1 0.357085 0.107168 0.127115 55.845 -2.3322e-07 
439 1 0.321448 -3.75981e-05 0.127005 55.845 -7.11681e-08 
440 1 0.321469 0.0357955 0.168756 55.845 1.18556e-07 
441 1 0.357143 0.0356568 0.126884 55.845 -7.94931e-08 
442 1 0.357104 0.0714375 0.168824 55.845 -8.96333e-08 
517 1 0.285714 0.107143 0.0416667 55.845 2.55815e-07 
527 1 0.25 0 0.0416667 55.845 2.65025e-07 
529 1 0.285714 0.0357143 0.0416667 55.845 3.08733e-07 
530 1 0.285653 0.0714177 0.08513 55.845 -2.15905e-07 
531 1 0.321429 0.0714286 0.0416667 55.845 1.47334e-07 
532 1 0.321499 0.107187 0.085184 55.845 -2.39944e-07 
533 1 0.357143 0.107143 0.0416667 55.845 1.56425e-07 
603 1 0.357143 0.0714286 0 55.845 -1.91166e-07 
541 1 0.321429 0 0.0416667 55.845 5.1659e-07 
542 1 0.321465 0.0356576 0.0851541 55.845 -1.44516e-07 
543 1 0.357143 0.0357143 0.0416667 55.845 4.10182e-07 
544 1 0.357168 0.0714871 0.0852757 55.845 -2.20477e-07 
602 1 0.321429 0.0357143 0 55.845 -1.13791e-08 
596 1 0.285714 0.0714286 0 55.845 -2.7767e-07 
597 1 0.321429 0.107143 0 55.845 -1.5333e-07 
612 1 0.464286 0.0357143 0 55.845 -2.07422e-07 
611 1 0.428571 0 0 55.845 -2.12096e-07 
610 1 0.464286 0.107143 0 55.845 -2.96074e-08 
609 1 0.428571 0.0714286 0 55.845 -1.20948e-07 
608 1 0.392857 0.0357143 0 55.845 -2.00777e-07 
341 1 0.392924 0.0714183 0.210555 55.845 -3.8024e-08 
343 1 0.428557 0.107253 0.210772 55.845 2.35996e-07 
348 1 0.392795 3.62246e-06 0.210703 55.845 -5.50676e-08 
350 1 0.428546 0.035707 0.210525 55.845 -1.88367e-07 
352 1 0.46427 0.0714764 0.210796 55.845 -1.17499e-07 
355 1 0.46435 5.67314e-05 0.210588 55.845 -1.93742e-07 
443 1 0.392864 0.0714044 0.127062 55.845 -1.6845e-07 
444 1 0.392903 0.107143 0.168788 55.845 -4.08375e-08 
445 1 0.428578 0.107182 0.127041 55.845 -2.20746e-07 
604 1 0.392857 0.107143 0 55.845 -9.86957e-08 
450 1 0.392945 5.81359e-06 0.127 55.845 -1.35855e-07 
451 1 0.3929 0.0357211 0.168716 55.845 1.06697e-07 
452 1 0.428648 0.0356874 0.127023 55.845 -2.39135e-07 
453 1 0.428626 0.0714295 0.168847 55.845 6.70828e-08 
454 1 0.464319 0.0714532 0.12703 55.845 -2.08427e-07 
455 1 0.464303 0.107122 0.16877 55.845 1.87443e-07 
456 1 0.428589 1.22054e-05 0.16887 55.845 2.90518e-07 
457 1 0.464338 3.02565e-05 0.127009 55.845 -3.36396e-07 
458 1 0.464374 0.0358324 0.16877 55.845 1.85717e-07 
545 1 0.392857 0.0714286 0.0416667 55.845 3.11256e-07 
546 1 0.392724 0.107072 0.0852565 55.845 -6.25531e-08 
547 1 0.428571 0.107143 0.0416667 55.845 2.17769e-07 
552 1 0.392857 0 0.0416667 55.845 5.98665e-07 
553 1 0.392942 0.0356467 0.0851917 55.845 -1.96654e-07 
554 1 0.428571 0.0357143 0.0416667 55.845 4.2684e-07 
555 1 0.428547 0.0714633 0.0850828 55.845 -1.21277e-07 
556 1 0.464286 0.0714286 0.0416667 55.845 3.49874e-07 
557 1 0.464326 0.107139 0.0852261 55.845 1.42748e-07 
558 1 0.428608 2.78012e-05 0.0851317 55.845 -2.77674e-07 
559 1 0.464286 0 0.0416667 55.845 4.30806e-07 
560 1 0.464291 0.0357115 0.0851068 55.845 -1.98968e-07 
255 1 7.04018e-05 0.178559 0.210561 55.845 -3.05277e-08 
257 1 0.0356414 0.214186 0.210677 55.845 -1.53178e-07 
261 1 0.0356574 0.142808 0.210691 55.845 -2.85433e-08 
263 1 0.0714113 0.178528 0.210453 55.845 -1.49676e-07 
265 1 0.107094 0.214284 0.210654 55.845 -1.45709e-07 
273 1 0.107082 0.142762 0.210687 55.845 -1.55303e-07 
357 1 7.38318e-05 0.178576 0.127011 55.845 -3.00772e-07 
358 1 -7.65481e-05 0.214268 0.168748 55.845 1.69468e-07 
359 1 0.0356717 0.214363 0.127182 55.845 -2.37448e-07 
360 1 0.0357163 0.250101 0.168893 55.845 2.19866e-07 
362 1 -3.51893e-06 0.142849 0.168868 55.845 6.68964e-08 
363 1 0.0355873 0.142788 0.12709 55.845 -2.57305e-07 
364 1 0.035656 0.178513 0.168762 55.845 5.79712e-08 
365 1 0.0714317 0.178549 0.127105 55.845 -2.98317e-07 
366 1 0.0713713 0.214244 0.168795 55.845 1.43267e-07 
367 1 0.107086 0.214161 0.127032 55.845 -2.61184e-07 
368 1 0.107091 0.249935 0.168761 55.845 3.36444e-07 
374 1 0.071308 0.142795 0.168809 55.845 2.27219e-07 
375 1 0.107062 0.142821 0.127033 55.845 -2.80458e-07 
376 1 0.107092 0.178464 0.168733 55.845 2.13518e-07 
459 1 0 0.178571 0.0416667 55.845 8.34577e-08 
460 1 -4.41974e-05 0.21425 0.085338 55.845 1.29389e-09 
461 1 0.0357143 0.214286 0.0416667 55.845 3.19457e-07 
462 1 0.0356876 0.250033 0.0850889 55.845 -1.04004e-07 
464 1 -6.27948e-05 0.142774 0.0851548 55.845 -7.76298e-08 
465 1 0.0357143 0.142857 0.0416667 55.845 2.11622e-07 
466 1 0.0357133 0.178587 0.0853417 55.845 -2.26624e-07 
467 1 0.0714286 0.178571 0.0416667 55.845 1.83896e-07 
468 1 0.0713731 0.214249 0.0852615 55.845 -9.45583e-08 
469 1 0.107143 0.214286 0.0416667 55.845 4.1561e-07 
470 1 0.107129 0.250003 0.0852507 55.845 -2.32326e-07 
476 1 0.0713733 0.142854 0.0853647 55.845 -1.12709e-07 
477 1 0.107143 0.142857 0.0416667 55.845 3.22588e-07 
478 1 0.107097 0.178485 0.0851411 55.845 -3.09579e-07 
561 1 0 0.214286 0 55.845 -1.28959e-07 
562 1 0.0357143 0.25 0 55.845 1.35676e-09 
563 1 0 0.142857 0 55.845 -1.92738e-07 
564 1 0.0357143 0.178571 0 55.845 -1.18524e-07 
565 1 0.0714286 0.214286 0 55.845 -1.55046e-07 
566 1 0.107143 0.25 0 55.845 -2.46398e-08 
569 1 0.0714286 0.142857 0 55.845 -1.66939e-07 
570 1 0.107143 0.178571 0 55.845 -8.2259e-08 
275 1 0.142799 0.178594 0.210617 55.845 -1.75773e-08 
277 1 0.178556 0.214168 0.210587 55.845 -6.42503e-08 
287 1 0.17856 0.142774 0.210657 55.845 1.11403e-09 
289 1 0.214292 0.178558 0.210729 55.845 -1.56237e-07 
291 1 0.250009 0.214138 0.210541 55.845 -3.7943e-07 
301 1 0.249992 0.142812 0.210605 55.845 -4.20105e-09 
377 1 0.142819 0.178517 0.127074 55.845 -1.98591e-07 
378 1 0.142765 0.214259 0.168733 55.845 2.96026e-07 
379 1 0.178517 0.21423 0.127123 55.845 -1.89122e-07 
388 1 0.142764 0.142818 0.16885 55.845 6.71793e-08 
389 1 0.178585 0.142863 0.127069 55.845 -1.74748e-07 
390 1 0.178568 0.178515 0.168706 55.845 1.65765e-07 
391 1 0.214315 0.178589 0.126983 55.845 -3.03718e-07 
392 1 0.214277 0.214192 0.168747 55.845 2.45419e-07 
393 1 0.250125 0.21433 0.126876 55.845 -4.67457e-07 
402 1 0.214244 0.14287 0.168756 55.845 1.68209e-07 
403 1 0.249952 0.14278 0.126976 55.845 -2.24149e-07 
404 1 0.249963 0.178532 0.168753 55.845 2.13479e-07 
479 1 0.142857 0.178571 0.0416667 55.845 2.81593e-07 
480 1 0.142863 0.214274 0.0851698 55.845 -6.0964e-08 
481 1 0.178571 0.214286 0.0416667 55.845 3.96534e-07 
490 1 0.142799 0.142829 0.0852422 55.845 -1.20286e-07 
491 1 0.178571 0.142857 0.0416667 55.845 3.62056e-07 
492 1 0.178565 0.178615 0.0852534 55.845 -2.28225e-07 
493 1 0.214286 0.178571 0.0416667 55.845 3.24404e-07 
494 1 0.214356 0.214249 0.085124 55.845 -2.37871e-07 
495 1 0.25 0.214286 0.0416667 55.845 2.73565e-07 
504 1 0.214289 0.142869 0.0852054 55.845 5.74189e-08 
505 1 0.25 0.142857 0.0416667 55.845 4.26086e-07 
506 1 0.250043 0.17851 0.085162 55.845 -1.99546e-07 
571 1 0.142857 0.214286 0 55.845 -2.18497e-07 
576 1 0.142857 0.142857 0 55.845 -2.15864e-07 
577 1 0.178571 0.178571 0 55.845 -8.13197e-08 
578 1 0.214286 0.214286 0 55.845 -3.20702e-07 
583 1 0.214286 0.142857 0 55.845 -9.10273e-08 
584 1 0.25 0.178571 0 55.845 -4.89788e-08 
303 1 0.285696 0.178565 0.210632 55.845 -2.04183e-07 
305 1 0.321498 0.214179 0.210618 55.845 -6.22118e-08 
315 1 0.32146 0.142802 0.210614 55.845 1.19561e-07 
317 1 0.357162 0.178567 0.210601 55.845 1.23238e-07 
405 1 0.28575 0.178539 0.127053 55.845 -2.75339e-07 
406 1 0.285752 0.214219 0.168852 55.845 2.60855e-07 
407 1 0.32145 0.214307 0.127012 55.845 -2.60746e-07 
416 1 0.285662 0.142918 0.168858 55.845 2.607e-07 
417 1 0.32143 0.142921 0.127019 55.845 -1.92943e-07 
418 1 0.321507 0.178604 0.168777 55.845 1.69435e-07 
419 1 0.357138 0.178549 0.126981 55.845 -1.60787e-07 
420 1 0.357204 0.214202 0.168751 55.845 4.22746e-08 
432 1 0.357145 0.142915 0.16868 55.845 -5.70485e-08 
507 1 0.285714 0.178571 0.0416667 55.845 3.5561e-07 
508 1 0.285744 0.214256 0.0851213 55.845 -1.95472e-07 
509 1 0.321429 0.214286 0.0416667 55.845 2.0773e-07 
518 1 0.285742 0.142743 0.0851629 55.845 -6.205e-09 
519 1 0.321429 0.142857 0.0416667 55.845 2.91365e-07 
520 1 0.321477 0.178522 0.085172 55.845 2.72579e-08 
521 1 0.357143 0.178571 0.0416667 55.845 2.01512e-07 
522 1 0.35714 0.214308 0.0851974 55.845 1.45343e-07 
534 1 0.357178 0.142822 0.0851206 55.845 7.5334e-08 
585 1 0.285714 0.214286 0 55.845 -2.06964e-07 
590 1 0.285714 0.142857 0 55.845 -7.13186e-08 
591 1 0.321429 0.178571 0 55.845 5.26564e-08 
592 1 0.357143 0.214286 0 55.845 4.23908e-08 
598 1 0.357143 0.142857 0 55.845 -1.56398e-08 
319 1 0.392874 0.214207 0.210638 55.845 1.06265e-07 
321 1 0.428586 0.250042 0.210533 55.845 2.01415e-07 
331 1 0.392851 0.142825 0.210606 55.845 2.34737e-07 
333 1 0.42852 0.178588 0.210719 55.845 1.15182e-07 
335 1 0.464275 0.214277 0.210522 55.845 1.75187e-08 
345 1 0.464286 0.142836 0.210691 55.845 2.79705e-07 
606 1 0.464286 0.178571 0 55.845 2.89745e-09 
421 1 0.392867 0.214156 0.12706 55.845 -2.62715e-07 
422 1 0.392867 0.249945 0.168841 55.845 -3.93103e-08 
423 1 0.428616 0.249996 0.127032 55.845 -4.29073e-07 
433 1 0.392774 0.142792 0.127023 55.845 -2.3427e-07 
434 1 0.392901 0.178425 0.16884 55.845 -9.00197e-08 
435 1 0.428561 0.178537 0.12712 55.845 -3.69208e-07 
436 1 0.428591 0.214197 0.16878 55.845 -1.25598e-07 
437 1 0.464308 0.214206 0.126926 55.845 -4.60315e-07 
605 1 0.428571 0.142857 0 55.845 -1.24721e-08 
446 1 0.428621 0.142871 0.168747 55.845 8.80625e-08 
447 1 0.464234 0.142863 0.126994 55.845 -3.13791e-07 
448 1 0.464292 0.178501 0.168693 55.845 -3.37303e-08 
523 1 0.392857 0.214286 0.0416667 55.845 -8.3419e-08 
524 1 0.392849 0.249979 0.0851373 55.845 2.27634e-07 
525 1 0.428571 0.25 0.0416667 55.845 -2.09878e-07 
535 1 0.392857 0.142857 0.0416667 55.845 1.72444e-07 
536 1 0.392847 0.178481 0.0852151 55.845 2.11748e-07 
537 1 0.428571 0.178571 0.0416667 55.845 -8.5807e-08 
538 1 0.428515 0.214241 0.0852494 55.845 2.65208e-07 
539 1 0.464286 0.214286 0.0416667 55.845 -2.61719e-07 
548 1 0.428473 0.142839 0.0852171 55.845 1.39023e-07 
549 1 0.464286 0.142857 0.0416667 55.845 4.99637e-08 
550 1 0.464301 0.178507 0.085043 55.845 2.27057e-07 
593 1 0.392857 0.25 0 55.845 6.47971e-08 
599 1 0.392857 0.178571 0 55.845 6.76447e-08 
600 1 0.428571 0.214286 0 55.845 1.87851e-08 
3 1 -6.31817e-06 0.107174 0.462535 55.845 -3.32205e-07 
7 1 3.80658e-05 0.0356669 0.462565 55.845 -4.30428e-07 
8 1 0.0358156 0.0715184 0.462496 55.845 -2.68017e-07 
9 1 0.071422 0.107193 0.462585 55.845 -4.32644e-07 
13 1 0.035733 4.58386e-05 0.462599 55.845 -5.74449e-07 
14 1 0.0714435 0.0357473 0.462609 55.845 -5.20692e-07 
15 1 0.107136 0.0714525 0.462679 55.845 -5.84486e-07 
20 1 0.107167 1.86596e-05 0.462494 55.845 -4.81781e-07 
55 1 2.25068e-05 0.10717 0.378393 55.845 8.86975e-08 
63 1 -4.57093e-06 0.0356774 0.378241 55.845 1.56586e-07 
64 1 -1.77992e-05 0.0714217 0.420478 55.845 2.11166e-07 
65 1 0.0358097 0.0714403 0.378273 55.845 2.03014e-07 
66 1 0.0357657 0.107128 0.420589 55.845 1.66191e-07 
67 1 0.0714711 0.107218 0.378155 55.845 1.54836e-07 
74 1 -3.09986e-06 3.45523e-05 0.420366 55.845 5.08356e-09 
75 1 0.0357063 3.5859e-05 0.378325 55.845 1.85054e-07 
76 1 0.0357187 0.0358281 0.420382 55.845 -1.093e-07 
77 1 0.0714176 0.0357413 0.378197 55.845 1.3014e-07 
78 1 0.0715062 0.0713843 0.420485 55.845 6.10315e-08 
79 1 0.107184 0.0713851 0.378189 55.845 1.38979e-07 
80 1 0.107149 0.107125 0.420415 55.845 5.18872e-08 
88 1 0.0714796 7.4176e-05 0.420522 55.845 -9.31786e-08 
89 1 0.107166 3.30965e-05 0.378155 55.845 2.2375e-07 
90 1 0.107181 0.0357766 0.420541 55.845 -4.04966e-08 
157 1 -4.62156e-06 0.107102 0.294616 55.845 1.12553e-08 
165 1 -6.01445e-06 0.0357076 0.294514 55.845 -4.22875e-08 
166 1 1.24354e-05 0.0713676 0.336355 55.845 -8.10438e-08 
167 1 0.035648 0.0714671 0.294525 55.845 -1.12986e-07 
168 1 0.0357094 0.107134 0.336272 55.845 -1.08142e-07 
169 1 0.0713672 0.107189 0.294521 55.845 -8.2837e-08 
176 1 2.67105e-05 -7.7914e-05 0.336264 55.845 -1.67613e-08 
177 1 0.0357401 2.41134e-05 0.294539 55.845 -9.768e-08 
178 1 0.0357141 0.0357427 0.336219 55.845 -2.58745e-07 
179 1 0.0713677 0.0357028 0.294392 55.845 -2.11117e-07 
180 1 0.0714396 0.0714652 0.336268 55.845 -4.37168e-08 
181 1 0.107167 0.0714494 0.294477 55.845 -1.54713e-07 
182 1 0.107161 0.107201 0.336359 55.845 -2.26784e-07 
190 1 0.0714691 4.4651e-05 0.336257 55.845 -1.27598e-07 
191 1 0.107134 -1.23403e-05 0.294578 55.845 -1.02725e-09 
192 1 0.107142 0.0356967 0.336327 55.845 -1.40464e-07 
268 1 -4.91345e-05 0.0714312 0.25299 55.845 -1.05533e-08 
270 1 0.0356445 0.10714 0.252812 55.845 2.36075e-07 
278 1 2.30456e-05 -4.04308e-05 0.252922 55.845 4.8597e-08 
280 1 0.0356883 0.0357319 0.252838 55.845 1.14564e-07 
282 1 0.0713944 0.0714771 0.252856 55.845 3.90415e-08 
284 1 0.107129 0.107138 0.253078 55.845 1.52197e-07 
292 1 0.0714606 -9.65031e-06 0.252788 55.845 7.22695e-10 
294 1 0.107112 0.035668 0.252921 55.845 2.01591e-07 
16 1 0.14286 0.107118 0.462593 55.845 -6.56808e-07 
21 1 0.142856 0.0356733 0.462634 55.845 -4.86924e-07 
22 1 0.178572 0.0714683 0.462474 55.845 -5.26677e-07 
23 1 0.214338 0.107148 0.462484 55.845 -2.93365e-07 
27 1 0.178563 4.45773e-06 0.462639 55.845 -3.25666e-07 
28 1 0.214281 0.0356493 0.462612 55.845 -5.13296e-07 
29 1 0.249923 0.0713976 0.46253 55.845 -5.60037e-07 
81 1 0.142881 0.107071 0.378162 55.845 7.94624e-08 
91 1 0.142817 0.0357274 0.378126 55.845 2.1842e-07 
92 1 0.142814 0.071376 0.420445 55.845 1.12208e-07 
93 1 0.178595 0.0714653 0.378127 55.845 1.75082e-07 
94 1 0.178623 0.107154 0.420419 55.845 3.53711e-08 
95 1 0.214308 0.107112 0.378176 55.845 3.771e-07 
102 1 0.142899 4.46317e-05 0.420442 55.845 2.44349e-07 
103 1 0.178522 4.10941e-05 0.378152 55.845 2.15236e-07 
104 1 0.178464 0.0357059 0.420411 55.845 1.42571e-07 
105 1 0.214265 0.0357356 0.378303 55.845 5.10739e-08 
106 1 0.214249 0.0713863 0.420404 55.845 4.64287e-08 
107 1 0.249995 0.0714498 0.378242 55.845 3.4023e-07 
108 1 0.250009 0.107154 0.420535 55.845 1.17028e-07 
118 1 0.214249 -6.53335e-05 0.420466 55.845 4.28218e-08 
120 1 0.249967 0.0357309 0.420579 55.845 -9.17146e-08 
183 1 0.142874 0.107189 0.294543 55.845 -1.10879e-07 
193 1 0.142756 0.0357533 0.294568 55.845 8.91284e-08 
194 1 0.142807 0.0714165 0.336172 55.845 -1.00424e-07 
195 1 0.178565 0.0714776 0.294593 55.845 -7.65166e-08 
196 1 0.178662 0.107181 0.33624 55.845 -2.82813e-07 
197 1 0.214301 0.107161 0.294466 55.845 8.31056e-08 
204 1 0.14284 -3.07999e-05 0.336134 55.845 6.38963e-09 
205 1 0.178564 -6.62308e-05 0.294613 55.845 5.42629e-08 
206 1 0.178558 0.0357493 0.336168 55.845 -3.50863e-08 
207 1 0.214292 0.0356976 0.294535 55.845 -1.47626e-07 
208 1 0.214285 0.0713832 0.336319 55.845 -1.05962e-07 
209 1 0.249906 0.071442 0.294523 55.845 3.75664e-08 
210 1 0.250023 0.107226 0.33628 55.845 -1.81453e-07 
220 1 0.21431 2.06093e-05 0.336232 55.845 -1.4657e-07 
222 1 0.249934 0.035743 0.336187 55.845 -3.74584e-07 
296 1 0.142875 0.0714855 0.252974 55.845 -3.20746e-08 
298 1 0.178547 0.107169 0.252836 55.845 2.96481e-08 
306 1 0.142886 -1.0333e-05 0.252945 55.845 1.70161e-07 
308 1 0.178496 0.0356396 0.253011 55.845 2.58168e-07 
310 1 0.214237 0.0714156 0.252864 55.845 8.34655e-08 
312 1 0.250044 0.107118 0.25284 55.845 2.89711e-07 
322 1 0.21419 -1.16602e-05 0.2528 55.845 2.85343e-08 
324 1 0.249985 0.035692 0.252878 55.845 9.60019e-08 
30 1 0.285743 0.10717 0.46252 55.845 -4.401e-07 
35 1 0.250027 7.18334e-06 0.462445 55.845 -4.85531e-07 
36 1 0.285701 0.0356442 0.462408 55.845 -5.27463e-07 
37 1 0.321446 0.0714013 0.462398 55.845 -6.46659e-07 
38 1 0.357154 0.107197 0.462565 55.845 -5.15772e-07 
42 1 0.321374 2.85495e-05 0.462556 55.845 -2.54753e-07 
43 1 0.35723 0.0357112 0.462584 55.845 -4.65521e-07 
109 1 0.285694 0.107136 0.378269 55.845 3.78777e-07 
119 1 0.249933 9.46194e-06 0.378178 55.845 -1.54973e-09 
121 1 0.285657 0.0357558 0.378045 55.845 2.16648e-07 
122 1 0.285698 0.0713419 0.420458 55.845 -8.58577e-08 
123 1 0.3213 0.0713729 0.378298 55.845 2.33571e-07 
124 1 0.321402 0.107225 0.420421 55.845 -5.75376e-08 
125 1 0.357061 0.107103 0.378343 55.845 7.17873e-08 
133 1 0.321465 3.27262e-06 0.378244 55.845 3.30156e-07 
134 1 0.321412 0.0356831 0.42044 55.845 8.98363e-08 
135 1 0.357083 0.0356815 0.378378 55.845 2.05955e-07 
136 1 0.357126 0.071465 0.420428 55.845 1.38997e-08 
211 1 0.285696 0.107091 0.294442 55.845 1.85695e-07 
221 1 0.250004 1.77046e-05 0.294625 55.845 -1.77074e-07 
223 1 0.285732 0.0357962 0.294453 55.845 -6.54098e-08 
224 1 0.285643 0.0714485 0.33617 55.845 -1.91799e-07 
225 1 0.321457 0.0714659 0.294434 55.845 -8.86898e-09 
226 1 0.321231 0.10709 0.336215 55.845 -1.4097e-07 
227 1 0.357163 0.107087 0.294524 55.845 -5.11761e-08 
235 1 0.321515 -7.11708e-05 0.294506 55.845 1.00091e-07 
236 1 0.321463 0.0356666 0.336187 55.845 -1.73624e-07 
237 1 0.357144 0.0356897 0.294498 55.845 2.42436e-08 
238 1 0.357061 0.0714283 0.33634 55.845 -2.37462e-07 
326 1 0.2857 0.071401 0.252793 55.845 1.47545e-07 
328 1 0.321343 0.107189 0.252908 55.845 6.20341e-08 
338 1 0.321452 0.0356741 0.252818 55.845 9.48651e-08 
340 1 0.357139 0.0714426 0.252756 55.845 -4.3338e-08 
44 1 0.392807 0.0714587 0.462593 55.845 -5.49587e-07 
45 1 0.428568 0.107117 0.462681 55.845 -3.97574e-07 
47 1 0.392893 1.13589e-05 0.462647 55.845 -5.09664e-07 
48 1 0.42857 0.0357044 0.46265 55.845 -6.03659e-07 
49 1 0.464229 0.0714877 0.46256 55.845 -4.49337e-07 
50 1 0.464219 -1.40682e-06 0.462522 55.845 -6.54148e-07 
137 1 0.392892 0.0714698 0.378249 55.845 1.27793e-07 
138 1 0.392895 0.10716 0.420505 55.845 1.73153e-07 
139 1 0.428533 0.10717 0.378268 55.845 2.56268e-07 
144 1 0.392839 4.41813e-05 0.378227 55.845 1.90205e-07 
145 1 0.392855 0.0356937 0.420433 55.845 1.58244e-07 
146 1 0.428534 0.0357657 0.378246 55.845 1.78336e-07 
147 1 0.42857 0.0714736 0.420449 55.845 9.98769e-08 
148 1 0.464187 0.0714191 0.37811 55.845 2.17967e-07 
149 1 0.464201 0.107175 0.420419 55.845 2.41503e-07 
150 1 0.428615 -3.85082e-05 0.420315 55.845 8.16717e-08 
151 1 0.464278 -1.37173e-05 0.378182 55.845 2.36254e-07 
152 1 0.464301 0.0357912 0.420602 55.845 6.25556e-08 
239 1 0.392735 0.0713898 0.294493 55.845 -1.12086e-08 
240 1 0.39285 0.107151 0.336226 55.845 -1.1622e-07 
241 1 0.428617 0.107123 0.294664 55.845 1.25936e-07 
246 1 0.39281 1.21677e-05 0.29452 55.845 1.92622e-07 
247 1 0.392842 0.0357543 0.336304 55.845 -3.05437e-07 
248 1 0.428588 0.0357897 0.294574 55.845 1.88667e-08 
249 1 0.428479 0.0713981 0.33617 55.845 -2.09851e-07 
250 1 0.464323 0.0713556 0.294625 55.845 -6.23077e-08 
251 1 0.464262 0.107107 0.336171 55.845 1.3844e-07 
252 1 0.428558 5.49397e-06 0.336278 55.845 -3.01499e-07 
253 1 0.464262 1.29919e-06 0.294435 55.845 1.74748e-07 
254 1 0.46425 0.0356962 0.336205 55.845 -3.19572e-07 
342 1 0.39292 0.107115 0.252897 55.845 -1.14771e-08 
349 1 0.392854 0.0357543 0.252829 55.845 3.68653e-08 
351 1 0.428524 0.0713651 0.25291 55.845 1.325e-07 
353 1 0.464246 0.107158 0.252992 55.845 2.24115e-07 
354 1 0.428581 6.45059e-05 0.252845 55.845 1.42803e-07 
356 1 0.464312 0.0357558 0.252787 55.845 4.92782e-08 
1 1 -5.95235e-05 0.178626 0.462549 55.845 -4.45e-07 
2 1 0.0356971 0.214258 0.462721 55.845 -4.18028e-07 
4 1 0.0356796 0.142848 0.462466 55.845 -4.51326e-07 
5 1 0.0713799 0.178577 0.462475 55.845 -5.48568e-07 
6 1 0.107192 0.214371 0.462562 55.845 -4.81421e-07 
10 1 0.107115 0.142928 0.462504 55.845 -6.53347e-07 
51 1 -3.37616e-05 0.178536 0.378209 55.845 2.11194e-07 
52 1 -1.44667e-05 0.214241 0.420505 55.845 1.02022e-07 
53 1 0.0356623 0.214211 0.378316 55.845 1.69955e-07 
54 1 0.0357246 0.250055 0.420454 55.845 -1.32737e-08 
56 1 -1.51085e-05 0.142836 0.420531 55.845 1.13533e-08 
57 1 0.0356853 0.142889 0.378169 55.845 2.2613e-07 
58 1 0.0356726 0.178523 0.420329 55.845 -2.51476e-08 
59 1 0.071349 0.178573 0.378135 55.845 1.95332e-07 
60 1 0.0713731 0.214278 0.420501 55.845 9.59834e-08 
61 1 0.107175 0.214298 0.378292 55.845 2.26926e-07 
62 1 0.107111 0.250014 0.420423 55.845 1.19256e-07 
68 1 0.0714859 0.142863 0.420345 55.845 6.60613e-08 
69 1 0.107093 0.142876 0.378148 55.845 1.69051e-07 
70 1 0.107135 0.178668 0.420434 55.845 6.73525e-08 
153 1 -4.3067e-05 0.178523 0.294445 55.845 9.9067e-08 
154 1 6.157e-05 0.214209 0.336266 55.845 -2.33535e-07 
155 1 0.0357012 0.214241 0.294567 55.845 -8.05053e-08 
156 1 0.0357249 0.249926 0.336293 55.845 -3.44976e-07 
158 1 -6.71632e-05 0.142824 0.336193 55.845 -1.35237e-07 
159 1 0.0356602 0.142862 0.29455 55.845 1.75274e-08 
160 1 0.0356926 0.178605 0.336176 55.845 -2.04589e-07 
161 1 0.0714361 0.178578 0.294393 55.845 -3.01071e-08 
162 1 0.0714722 0.214169 0.336295 55.845 -2.13416e-07 
163 1 0.107108 0.214286 0.294453 55.845 1.05266e-07 
164 1 0.107087 0.249923 0.336247 55.845 -3.21867e-07 
170 1 0.0714692 0.142854 0.336186 55.845 -1.34852e-09 
171 1 0.10707 0.142868 0.294586 55.845 -4.59922e-08 
172 1 0.107114 0.178636 0.336259 55.845 -1.61865e-07 
256 1 -3.49238e-05 0.21433 0.252895 55.845 5.0328e-08 
258 1 0.03572 0.249984 0.252754 55.845 -1.08052e-08 
260 1 3.9721e-05 0.142857 0.252785 55.845 6.05145e-09 
262 1 0.0356213 0.178523 0.252848 55.845 1.96933e-07 
264 1 0.071349 0.214276 0.252876 55.845 -1.30998e-08 
266 1 0.107111 0.250048 0.252881 55.845 1.17084e-07 
272 1 0.07139 0.142888 0.252858 55.845 2.55865e-07 
274 1 0.107158 0.178594 0.252764 55.845 3.03512e-07 
11 1 0.142894 0.178618 0.462426 55.845 -5.36429e-07 
12 1 0.178551 0.214333 0.462477 55.845 -5.15478e-07 
17 1 0.178609 0.142793 0.462554 55.845 -4.91572e-07 
18 1 0.214259 0.178602 0.462589 55.845 -5.37435e-07 
19 1 0.249968 0.214381 0.462581 55.845 -7.2204e-07 
24 1 0.250048 0.142834 0.462477 55.845 -3.71692e-07 
71 1 0.142855 0.178571 0.378169 55.845 1.91614e-07 
72 1 0.142915 0.214313 0.420342 55.845 2.98672e-07 
73 1 0.178611 0.21429 0.378269 55.845 1.90215e-07 
82 1 0.142821 0.142896 0.420309 55.845 1.37345e-07 
83 1 0.178715 0.142889 0.378119 55.845 1.68787e-07 
84 1 0.178539 0.178565 0.420288 55.845 9.22224e-08 
85 1 0.214361 0.17859 0.37822 55.845 9.90877e-08 
86 1 0.214266 0.214315 0.420457 55.845 1.01953e-07 
87 1 0.249982 0.214331 0.378209 55.845 5.87593e-08 
96 1 0.214341 0.142842 0.420308 55.845 9.0926e-08 
97 1 0.250032 0.14288 0.378223 55.845 3.80726e-07 
98 1 0.249951 0.178562 0.4205 55.845 -6.25291e-08 
173 1 0.142905 0.178556 0.294546 55.845 9.69083e-08 
174 1 0.142805 0.214253 0.336238 55.845 -1.02363e-07 
175 1 0.178507 0.214274 0.294537 55.845 2.08575e-07 
184 1 0.142971 0.142879 0.336289 55.845 -2.0882e-07 
185 1 0.17856 0.142943 0.294478 55.845 -4.56055e-09 
186 1 0.178595 0.178616 0.336199 55.845 -2.82567e-07 
187 1 0.214297 0.178577 0.294411 55.845 -2.1848e-08 
188 1 0.214212 0.214265 0.336253 55.845 -2.98562e-07 
189 1 0.249992 0.214304 0.294487 55.845 -4.36778e-08 
198 1 0.214337 0.142853 0.336143 55.845 -1.94893e-07 
199 1 0.250013 0.142855 0.294484 55.845 1.79906e-07 
200 1 0.24998 0.178574 0.33625 55.845 -4.60951e-07 
276 1 0.142851 0.214271 0.252908 55.845 8.5941e-08 
286 1 0.1427 0.14284 0.252913 55.845 -3.64225e-08 
288 1 0.178559 0.178622 0.252868 55.845 8.20839e-08 
290 1 0.2143 0.214336 0.252798 55.845 1.12012e-09 
300 1 0.21429 0.142804 0.253001 55.845 1.26344e-09 
302 1 0.250028 0.178501 0.252933 55.845 -1.09821e-08 
25 1 0.285749 0.178655 0.462675 55.845 -4.88727e-07 
26 1 0.321415 0.214339 0.462511 55.845 -5.25436e-07 
31 1 0.32144 0.142956 0.462544 55.845 -4.33701e-07 
32 1 0.357037 0.178611 0.462464 55.845 -2.70534e-07 
99 1 0.285697 0.178571 0.378146 55.845 1.20352e-07 
100 1 0.285784 0.214312 0.420296 55.845 8.47516e-08 
101 1 0.321447 0.214285 0.378127 55.845 1.99105e-07 
110 1 0.285748 0.142928 0.420418 55.845 1.09159e-07 
111 1 0.321391 0.142921 0.378102 55.845 1.74926e-07 
112 1 0.321391 0.178651 0.420536 55.845 1.122e-07 
113 1 0.357135 0.178568 0.378192 55.845 8.01109e-08 
114 1 0.357117 0.214359 0.420193 55.845 1.25975e-07 
126 1 0.357179 0.142832 0.420244 55.845 1.24471e-07 
201 1 0.285765 0.178532 0.294528 55.845 -5.39444e-09 
202 1 0.285701 0.214199 0.336211 55.845 -2.67538e-07 
203 1 0.321411 0.214301 0.29452 55.845 6.03238e-08 
212 1 0.2857 0.142792 0.336243 55.845 -1.17413e-07 
213 1 0.321471 0.142747 0.294482 55.845 6.22359e-08 
214 1 0.321426 0.178568 0.336253 55.845 -1.56267e-07 
215 1 0.357184 0.178535 0.294523 55.845 -9.26976e-08 