ITEM: TIMESTEP
1500
ITEM: NUMBER OF ATOMS
5880
ITEM: BOX BOUNDS pp pp ff
-27.9842 27.9842
-27.9842 27.9842
0 34.092
ITEM: ATOMS id type xs ys zs mass q 
259 1 -1.23591e-05 0.107117 0.208595 55.845 5.93388e-08 
267 1 7.21715e-06 0.0356816 0.208685 55.845 1.24835e-07 
269 1 0.0357243 0.0714086 0.20852 55.845 7.5689e-08 
271 1 0.0714616 0.107163 0.208598 55.845 3.28833e-08 
279 1 0.0357913 -4.26298e-05 0.208604 55.845 8.82737e-08 
281 1 0.0714275 0.0357557 0.208532 55.845 -8.73929e-08 
283 1 0.107165 0.0714179 0.208485 55.845 3.97667e-09 
293 1 0.107198 3.7816e-05 0.208626 55.845 -4.45913e-08 
361 1 -8.79773e-06 0.107111 0.124795 55.845 -8.94658e-08 
369 1 -9.5158e-06 0.0357056 0.124606 55.845 2.1545e-08 
370 1 6.05464e-06 0.0713453 0.166717 55.845 1.17266e-07 
371 1 0.0357747 0.0714247 0.124749 55.845 -9.61343e-08 
372 1 0.0357424 0.107122 0.166631 55.845 2.76248e-07 
373 1 0.071462 0.107117 0.124654 55.845 -2.21774e-08 
380 1 -1.54334e-05 -3.34071e-05 0.166736 55.845 -1.29408e-07 
381 1 0.0357223 -6.1206e-05 0.124613 55.845 -2.86189e-08 
382 1 0.0356551 0.0356199 0.166644 55.845 1.34778e-07 
383 1 0.0714599 0.0357203 0.124534 55.845 -1.05585e-07 
384 1 0.0714409 0.0713533 0.166622 55.845 1.29538e-07 
385 1 0.107166 0.0714245 0.124579 55.845 -5.35879e-08 
386 1 0.107181 0.107145 0.166601 55.845 5.65306e-09 
394 1 0.0714594 2.90241e-05 0.166672 55.845 1.57102e-07 
395 1 0.10719 1.01086e-05 0.124622 55.845 -1.25336e-07 
396 1 0.107153 0.0357596 0.166606 55.845 1.71109e-07 
463 1 0 0.107143 0.0416667 55.845 -3.84775e-07 
471 1 0 0.0357143 0.0416667 55.845 -3.80573e-07 
472 1 -2.56697e-05 0.0714299 0.0836216 55.845 3.35825e-07 
473 1 0.0357143 0.0714286 0.0416667 55.845 -3.58768e-07 
474 1 0.0356782 0.107087 0.0835932 55.845 3.95994e-07 
475 1 0.0714286 0.107143 0.0416667 55.845 -2.02181e-07 
482 1 -4.59392e-05 1.04059e-05 0.0834816 55.845 1.8113e-07 
483 1 0.0357143 0 0.0416667 55.845 -2.26521e-07 
484 1 0.0356733 0.0356615 0.083471 55.845 3.91526e-07 
485 1 0.0714286 0.0357143 0.0416667 55.845 -3.06449e-07 
486 1 0.0714481 0.0713989 0.0835679 55.845 3.35659e-07 
487 1 0.107143 0.0714286 0.0416667 55.845 -5.56275e-08 
488 1 0.10713 0.107169 0.0834909 55.845 1.94495e-07 
496 1 0.0714938 2.54494e-05 0.0834921 55.845 3.05133e-07 
497 1 0.107143 0 0.0416667 55.845 -2.77376e-07 
498 1 0.107199 0.0357084 0.0834985 55.845 3.23745e-07 
567 1 0 0.0714286 0 55.845 -3.66641e-08 
568 1 0.0357143 0.107143 0 55.845 -6.18326e-08 
572 1 0 0 0 55.845 -1.34553e-07 
573 1 0.0357143 0.0357143 0 55.845 -1.18131e-07 
574 1 0.0714286 0.0714286 0 55.845 -1.48671e-07 
575 1 0.107143 0.107143 0 55.845 -1.26883e-07 
579 1 0.0714286 0 0 55.845 -1.38577e-07 
580 1 0.107143 0.0357143 0 55.845 -5.84288e-08 
285 1 0.142844 0.107169 0.208666 55.845 2.29129e-07 
295 1 0.142911 0.0357664 0.208654 55.845 4.23411e-08 
297 1 0.178567 0.0714787 0.208686 55.845 2.64117e-07 
299 1 0.214278 0.107179 0.208735 55.845 5.5714e-07 
307 1 0.17854 4.85656e-06 0.208646 55.845 1.40003e-07 
309 1 0.214326 0.0357115 0.20862 55.845 2.55142e-07 
311 1 0.25001 0.071451 0.208659 55.845 3.96077e-07 
387 1 0.142889 0.107211 0.124651 55.845 1.89187e-07 
397 1 0.142875 0.0357011 0.124831 55.845 -1.32883e-08 
398 1 0.142893 0.0714585 0.166654 55.845 7.75794e-08 
399 1 0.178626 0.0714924 0.124727 55.845 1.88303e-07 
400 1 0.178542 0.107166 0.166742 55.845 -2.44994e-07 
401 1 0.214287 0.107148 0.124818 55.845 2.04724e-07 
408 1 0.142844 -2.30723e-05 0.166752 55.845 3.6978e-07 
409 1 0.178577 -8.82956e-07 0.124741 55.845 -1.5334e-07 
410 1 0.178597 0.0357204 0.166701 55.845 2.50551e-07 
411 1 0.214259 0.0356701 0.124619 55.845 2.43902e-08 
412 1 0.214302 0.0714104 0.166764 55.845 5.81932e-08 
413 1 0.250097 0.0714364 0.124605 55.845 -4.45872e-08 
414 1 0.250036 0.107176 0.16664 55.845 -2.60408e-10 
424 1 0.214281 -1.80271e-05 0.166708 55.845 3.87059e-07 
426 1 0.249985 0.0357231 0.166544 55.845 2.58059e-07 
489 1 0.142857 0.107143 0.0416667 55.845 6.84668e-08 
499 1 0.142857 0.0357143 0.0416667 55.845 -1.36651e-07 
500 1 0.142928 0.0714896 0.0835335 55.845 1.56976e-07 
501 1 0.178571 0.0714286 0.0416667 55.845 -3.48895e-08 
502 1 0.178655 0.107155 0.0835679 55.845 -7.63828e-08 
503 1 0.214286 0.107143 0.0416667 55.845 -7.27254e-08 
510 1 0.142849 2.90106e-05 0.0835718 55.845 3.41439e-07 
511 1 0.178571 0 0.0416667 55.845 -3.6846e-07 
512 1 0.178574 0.0357155 0.0836165 55.845 2.68821e-07 
513 1 0.214286 0.0357143 0.0416667 55.845 -2.44679e-07 
514 1 0.214332 0.0714488 0.0836181 55.845 1.02971e-07 
515 1 0.25 0.0714286 0.0416667 55.845 -3.22296e-07 
516 1 0.249962 0.107155 0.083516 55.845 6.26162e-08 
526 1 0.214313 -7.14772e-05 0.0835511 55.845 3.56024e-07 
528 1 0.250016 0.035691 0.0834121 55.845 2.36092e-07 
581 1 0.142857 0.0714286 0 55.845 3.84186e-09 
582 1 0.178571 0.107143 0 55.845 2.37063e-08 
586 1 0.142857 0 0 55.845 -1.28745e-08 
587 1 0.178571 0.0357143 0 55.845 1.28776e-07 
588 1 0.214286 0.0714286 0 55.845 1.61872e-07 
589 1 0.25 0.107143 0 55.845 1.98795e-07 
594 1 0.214286 0 0 55.845 -6.77247e-08 
595 1 0.25 0.0357143 0 55.845 1.32457e-07 
313 1 0.285655 0.107126 0.208578 55.845 3.71635e-07 
323 1 0.249989 2.45681e-05 0.208619 55.845 3.51677e-08 
325 1 0.285653 0.0357177 0.208747 55.845 1.64052e-07 
327 1 0.321425 0.0714731 0.208623 55.845 1.68516e-07 
329 1 0.357103 0.107158 0.208596 55.845 2.5453e-07 
337 1 0.321486 -7.90297e-06 0.208603 55.845 4.70326e-08 
339 1 0.357124 0.0357519 0.208665 55.845 -2.60078e-08 
415 1 0.285663 0.107165 0.124666 55.845 -4.29951e-09 
425 1 0.249965 2.01568e-05 0.124641 55.845 -1.76662e-07 
427 1 0.285767 0.035752 0.124659 55.845 -2.68994e-07 
428 1 0.285719 0.071462 0.166767 55.845 4.11277e-07 
429 1 0.321427 0.0715251 0.124627 55.845 -1.70033e-07 
430 1 0.321375 0.107209 0.166672 55.845 3.65484e-07 
431 1 0.357146 0.10719 0.124709 55.845 -2.405e-08 
439 1 0.321465 5.21884e-05 0.124627 55.845 -1.60381e-07 
440 1 0.321376 0.0357474 0.166779 55.845 5.17568e-07 
441 1 0.357151 0.03571 0.124777 55.845 -2.03132e-07 
442 1 0.357098 0.0714644 0.166622 55.845 6.02489e-07 
517 1 0.285714 0.107143 0.0416667 55.845 -1.23488e-07 
527 1 0.25 0 0.0416667 55.845 -3.61005e-07 
529 1 0.285714 0.0357143 0.0416667 55.845 -4.51966e-07 
530 1 0.285697 0.0714517 0.0834389 55.845 3.53534e-07 
531 1 0.321429 0.0714286 0.0416667 55.845 -3.02446e-07 
532 1 0.321426 0.107133 0.0835388 55.845 3.53649e-07 
533 1 0.357143 0.107143 0.0416667 55.845 -3.27927e-07 
603 1 0.357143 0.0714286 0 55.845 -8.27154e-08 
541 1 0.321429 0 0.0416667 55.845 -2.55109e-07 
542 1 0.321429 0.0357153 0.0835248 55.845 3.38847e-07 
543 1 0.357143 0.0357143 0.0416667 55.845 -3.02551e-07 
544 1 0.357105 0.0713919 0.0835892 55.845 4.93636e-07 
602 1 0.321429 0.0357143 0 55.845 -5.14445e-09 
596 1 0.285714 0.0714286 0 55.845 1.00646e-07 
597 1 0.321429 0.107143 0 55.845 -4.21351e-08 
612 1 0.464286 0.0357143 0 55.845 6.29594e-08 
611 1 0.428571 0 0 55.845 8.23386e-08 
610 1 0.464286 0.107143 0 55.845 -4.39441e-08 
609 1 0.428571 0.0714286 0 55.845 -3.77794e-08 
608 1 0.392857 0.0357143 0 55.845 7.72721e-08 
341 1 0.392824 0.0714693 0.208506 55.845 1.95426e-08 
343 1 0.428582 0.107143 0.208553 55.845 3.03162e-07 
348 1 0.39293 -3.00079e-05 0.20867 55.845 -6.79508e-08 
350 1 0.428611 0.0356374 0.208745 55.845 5.53182e-08 
352 1 0.464312 0.0714575 0.208733 55.845 2.28898e-07 
355 1 0.464313 2.52328e-05 0.208767 55.845 2.13465e-07 
443 1 0.392862 0.071398 0.12481 55.845 -1.26065e-07 
444 1 0.39285 0.107173 0.1666 55.845 3.56924e-07 
445 1 0.428578 0.107148 0.124711 55.845 2.96984e-08 
604 1 0.392857 0.107143 0 55.845 -1.64783e-07 
450 1 0.392836 8.38164e-06 0.124746 55.845 -2.31366e-07 
451 1 0.392938 0.0357285 0.166765 55.845 3.96046e-07 
452 1 0.42859 0.0357191 0.124714 55.845 -1.88751e-07 
453 1 0.428567 0.0713763 0.166668 55.845 3.04953e-07 
454 1 0.464246 0.0714007 0.124741 55.845 -2.66138e-07 
455 1 0.464315 0.107146 0.166674 55.845 1.75097e-07 
456 1 0.428559 4.60239e-05 0.166705 55.845 9.77159e-08 
457 1 0.464253 -2.38417e-05 0.124631 55.845 -1.0767e-07 
458 1 0.464304 0.0356968 0.166828 55.845 6.27668e-08 
545 1 0.392857 0.0714286 0.0416667 55.845 -3.01852e-07 
546 1 0.392861 0.107086 0.0835949 55.845 1.77619e-07 
547 1 0.428571 0.107143 0.0416667 55.845 -3.15323e-07 
552 1 0.392857 0 0.0416667 55.845 -1.71293e-07 
553 1 0.39289 0.0356669 0.0835678 55.845 3.33167e-07 
554 1 0.428571 0.0357143 0.0416667 55.845 -2.72715e-07 
555 1 0.428577 0.071426 0.0835119 55.845 2.61209e-07 
556 1 0.464286 0.0714286 0.0416667 55.845 -2.85761e-07 
557 1 0.464296 0.107187 0.0835953 55.845 2.2091e-07 
558 1 0.428632 1.61791e-05 0.0835627 55.845 1.00025e-07 
559 1 0.464286 0 0.0416667 55.845 -2.41683e-07 
560 1 0.464386 0.0357374 0.0835525 55.845 1.38914e-07 
255 1 6.2607e-06 0.178611 0.20878 55.845 -1.25149e-07 
257 1 0.0356978 0.214293 0.208778 55.845 -1.34897e-07 
261 1 0.0357143 0.142802 0.208652 55.845 -1.56631e-07 
263 1 0.0713917 0.178605 0.20853 55.845 -1.03927e-07 
265 1 0.107084 0.214313 0.208634 55.845 1.26183e-07 
273 1 0.107173 0.142862 0.208611 55.845 1.68134e-07 
357 1 -2.14367e-05 0.178623 0.124707 55.845 -3.22816e-07 
358 1 3.09192e-05 0.214317 0.166775 55.845 1.25615e-07 
359 1 0.0357013 0.214315 0.124869 55.845 -2.89509e-07 
360 1 0.0357222 0.250042 0.166773 55.845 8.74828e-08 
362 1 1.0131e-06 0.142879 0.166715 55.845 2.03856e-07 
363 1 0.0356824 0.142929 0.124719 55.845 -1.94485e-07 
364 1 0.0356899 0.17857 0.16672 55.845 3.05545e-07 
365 1 0.071425 0.178555 0.124745 55.845 -2.28948e-07 
366 1 0.0714235 0.214301 0.166665 55.845 9.89528e-08 
367 1 0.107151 0.214299 0.124645 55.845 -2.02924e-07 
368 1 0.107143 0.250057 0.166675 55.845 -1.44298e-08 
374 1 0.0714243 0.14282 0.166697 55.845 1.10181e-07 
375 1 0.107159 0.142878 0.124583 55.845 3.27945e-08 
376 1 0.107108 0.17858 0.166666 55.845 -1.1193e-07 
459 1 0 0.178571 0.0416667 55.845 -1.94462e-07 
460 1 1.15571e-05 0.214313 0.0836133 55.845 3.96188e-07 
461 1 0.0357143 0.214286 0.0416667 55.845 -3.0544e-08 
462 1 0.035729 0.249984 0.0835989 55.845 4.04481e-07 
464 1 6.50958e-05 0.142913 0.0835293 55.845 4.05774e-07 
465 1 0.0357143 0.142857 0.0416667 55.845 -2.41468e-07 
466 1 0.0356792 0.178595 0.0835138 55.845 5.0321e-07 
467 1 0.0714286 0.178571 0.0416667 55.845 -8.51124e-08 
468 1 0.0714294 0.214299 0.0836264 55.845 2.77684e-07 
469 1 0.107143 0.214286 0.0416667 55.845 -1.19019e-07 
470 1 0.107127 0.250036 0.0835075 55.845 3.00677e-07 
476 1 0.0713775 0.142872 0.0836374 55.845 3.29885e-07 
477 1 0.107143 0.142857 0.0416667 55.845 3.84615e-09 
478 1 0.107136 0.178558 0.0835276 55.845 1.4932e-07 
561 1 0 0.214286 0 55.845 7.23891e-08 
562 1 0.0357143 0.25 0 55.845 1.51392e-07 
563 1 0 0.142857 0 55.845 1.04804e-07 
564 1 0.0357143 0.178571 0 55.845 9.16461e-08 
565 1 0.0714286 0.214286 0 55.845 1.84451e-07 
566 1 0.107143 0.25 0 55.845 1.47672e-07 
569 1 0.0714286 0.142857 0 55.845 -1.17527e-08 
570 1 0.107143 0.178571 0 55.845 7.54522e-08 
275 1 0.142866 0.178514 0.208704 55.845 2.9121e-07 
277 1 0.178485 0.214411 0.208711 55.845 3.8485e-07 
287 1 0.178579 0.1429 0.208734 55.845 4.53755e-07 
289 1 0.214245 0.178546 0.208533 55.845 4.98183e-07 
291 1 0.249976 0.214327 0.208694 55.845 3.93778e-07 
301 1 0.250018 0.142833 0.208659 55.845 4.63928e-07 
377 1 0.142859 0.178602 0.124619 55.845 7.57648e-08 
378 1 0.142874 0.21434 0.166754 55.845 -1.14381e-07 
379 1 0.178539 0.214297 0.124826 55.845 2.6753e-08 
388 1 0.142852 0.142854 0.166663 55.845 -2.98818e-07 
389 1 0.178537 0.142981 0.124645 55.845 2.74474e-07 
390 1 0.178563 0.178578 0.166781 55.845 -3.14066e-07 
391 1 0.214326 0.178585 0.124799 55.845 1.42944e-07 
392 1 0.214266 0.214251 0.16658 55.845 -1.06646e-08 
393 1 0.249998 0.214209 0.124647 55.845 -2.53045e-08 
402 1 0.214345 0.142765 0.166693 55.845 -4.13594e-07 
403 1 0.250036 0.14286 0.124573 55.845 1.64124e-07 
404 1 0.249986 0.178548 0.166767 55.845 -1.3805e-07 
479 1 0.142857 0.178571 0.0416667 55.845 -6.63984e-08 
480 1 0.142829 0.214364 0.0834965 55.845 9.66683e-08 
481 1 0.178571 0.214286 0.0416667 55.845 -2.49217e-08 
490 1 0.142867 0.142911 0.0834707 55.845 -1.35575e-07 
491 1 0.178571 0.142857 0.0416667 55.845 -2.99873e-08 
492 1 0.178635 0.178612 0.0835109 55.845 -9.81332e-08 
493 1 0.214286 0.178571 0.0416667 55.845 -2.62255e-08 
494 1 0.214327 0.214277 0.0835081 55.845 7.44482e-08 
495 1 0.25 0.214286 0.0416667 55.845 -1.29203e-07 
504 1 0.214257 0.142785 0.0835599 55.845 -2.40323e-07 
505 1 0.25 0.142857 0.0416667 55.845 -5.0046e-08 
506 1 0.249988 0.178525 0.0835317 55.845 1.20174e-08 
571 1 0.142857 0.214286 0 55.845 2.19111e-07 
576 1 0.142857 0.142857 0 55.845 5.09545e-08 
577 1 0.178571 0.178571 0 55.845 -1.15781e-08 
578 1 0.214286 0.214286 0 55.845 2.42813e-08 
583 1 0.214286 0.142857 0 55.845 1.64383e-08 
584 1 0.25 0.178571 0 55.845 3.75391e-09 
303 1 0.285704 0.178499 0.208739 55.845 3.83434e-07 
305 1 0.321429 0.214207 0.208684 55.845 1.96312e-07 
315 1 0.321392 0.142833 0.208654 55.845 3.42953e-07 
317 1 0.357131 0.178507 0.208775 55.845 3.32641e-07 
405 1 0.285649 0.178519 0.124623 55.845 9.1457e-08 
406 1 0.285662 0.214208 0.166809 55.845 8.26082e-08 
407 1 0.321368 0.214261 0.124697 55.845 -8.66345e-09 
416 1 0.285682 0.142901 0.16653 55.845 -4.97202e-08 
417 1 0.321418 0.142859 0.124616 55.845 8.90605e-08 
418 1 0.32137 0.178538 0.16675 55.845 -1.31537e-07 
419 1 0.357119 0.17852 0.124626 55.845 3.23886e-08 
420 1 0.357186 0.214252 0.166631 55.845 -3.3495e-07 
432 1 0.357057 0.142901 0.166726 55.845 3.64823e-08 
507 1 0.285714 0.178571 0.0416667 55.845 1.43757e-08 
508 1 0.285712 0.214278 0.0835965 55.845 1.14062e-07 
509 1 0.321429 0.214286 0.0416667 55.845 -4.42693e-08 
518 1 0.285664 0.142829 0.0835596 55.845 1.35922e-07 
519 1 0.321429 0.142857 0.0416667 55.845 -9.44383e-08 
520 1 0.32135 0.178456 0.0835541 55.845 -2.7131e-08 
521 1 0.357143 0.178571 0.0416667 55.845 -2.01081e-07 
522 1 0.357141 0.214281 0.0835991 55.845 3.49447e-08 
534 1 0.357121 0.142807 0.0834638 55.845 1.26105e-08 
585 1 0.285714 0.214286 0 55.845 1.14434e-07 
590 1 0.285714 0.142857 0 55.845 5.85621e-08 
591 1 0.321429 0.178571 0 55.845 -4.66595e-08 
592 1 0.357143 0.214286 0 55.845 8.50303e-08 
598 1 0.357143 0.142857 0 55.845 -2.04709e-07 
319 1 0.392912 0.21431 0.208745 55.845 1.50743e-07 
321 1 0.4286 0.249963 0.208608 55.845 8.35329e-08 
331 1 0.392906 0.142803 0.208599 55.845 4.23636e-07 
333 1 0.428532 0.178548 0.208701 55.845 3.56295e-07 
335 1 0.464307 0.214254 0.208774 55.845 3.45713e-07 
345 1 0.464347 0.142907 0.20859 55.845 3.28219e-07 
606 1 0.464286 0.178571 0 55.845 -2.82437e-07 
421 1 0.392902 0.214306 0.124785 55.845 -4.78876e-08 
422 1 0.392899 0.249983 0.166746 55.845 -2.45581e-07 
423 1 0.428636 0.249995 0.124715 55.845 1.02962e-08 
433 1 0.392848 0.14284 0.124669 55.845 1.18097e-07 
434 1 0.3929 0.178572 0.16678 55.845 -1.81889e-07 
435 1 0.428587 0.178633 0.124723 55.845 2.84847e-07 
436 1 0.428589 0.214237 0.166803 55.845 -1.50045e-07 
437 1 0.464329 0.214307 0.124791 55.845 3.52513e-07 
605 1 0.428571 0.142857 0 55.845 -1.65048e-07 
446 1 0.428571 0.142837 0.166762 55.845 1.368e-07 
447 1 0.464311 0.142923 0.124737 55.845 3.06966e-07 
448 1 0.464324 0.178578 0.166595 55.845 5.19455e-08 
523 1 0.392857 0.214286 0.0416667 55.845 -1.73067e-07 
524 1 0.392836 0.249976 0.0836932 55.845 9.76613e-08 
525 1 0.428571 0.25 0.0416667 55.845 -1.82697e-07 
535 1 0.392857 0.142857 0.0416667 55.845 -3.80611e-07 
536 1 0.392821 0.178528 0.0835584 55.845 -7.90261e-08 
537 1 0.428571 0.178571 0.0416667 55.845 -1.94637e-07 
538 1 0.428625 0.214234 0.08354 55.845 1.10215e-07 
539 1 0.464286 0.214286 0.0416667 55.845 -2.00942e-07 
548 1 0.428537 0.142875 0.083598 55.845 9.52725e-08 
549 1 0.464286 0.142857 0.0416667 55.845 -1.35938e-07 
550 1 0.464311 0.178524 0.0835038 55.845 2.05465e-07 
593 1 0.392857 0.25 0 55.845 -7.37749e-08 
599 1 0.392857 0.178571 0 55.845 -1.85453e-07 
600 1 0.428571 0.214286 0 55.845 -2.43174e-07 
3 1 4.0072e-05 0.107135 0.459125 55.845 2.71777e-07 
7 1 5.21396e-05 0.0356589 0.459121 55.845 2.91787e-07 
8 1 0.0357026 0.0713964 0.459171 55.845 3.1786e-07 
9 1 0.0714075 0.107162 0.459131 55.845 7.90169e-08 
13 1 0.0357378 1.17352e-05 0.459077 55.845 3.01203e-08 
14 1 0.0714116 0.0356984 0.459159 55.845 1.11843e-07 
15 1 0.10712 0.0714056 0.459174 55.845 8.28459e-08 
20 1 0.107083 4.07615e-05 0.45911 55.845 8.76023e-09 
55 1 8.43811e-06 0.107151 0.374785 55.845 3.71403e-07 
63 1 -3.95002e-05 0.0357707 0.374824 55.845 3.81909e-07 
64 1 -1.2677e-05 0.0714404 0.417272 55.845 -2.55244e-07 
65 1 0.0357357 0.0714593 0.374839 55.845 1.45988e-07 
66 1 0.0356837 0.10715 0.417317 55.845 3.17099e-08 
67 1 0.0714591 0.107139 0.374778 55.845 1.22939e-08 
74 1 3.98596e-05 2.86576e-06 0.417271 55.845 -1.41276e-07 
75 1 0.0357091 1.74928e-05 0.374785 55.845 2.05587e-07 
76 1 0.0356698 0.035736 0.417227 55.845 -1.04894e-07 
77 1 0.0714711 0.0357248 0.374838 55.845 1.96442e-07 
78 1 0.0714799 0.0714471 0.417369 55.845 2.43802e-07 
79 1 0.107161 0.071344 0.374778 55.845 -1.26571e-07 
80 1 0.107098 0.107059 0.417345 55.845 5.18884e-07 
88 1 0.0714238 2.73639e-05 0.41727 55.845 2.45426e-09 
89 1 0.107148 -2.05873e-05 0.374865 55.845 1.77984e-07 
90 1 0.107115 0.0357079 0.417258 55.845 8.07777e-08 
157 1 9.08534e-06 0.107136 0.290995 55.845 1.07398e-07 
165 1 4.74157e-06 0.0356971 0.29098 55.845 2.2783e-07 
166 1 4.46629e-05 0.0714442 0.332573 55.845 -3.84934e-07 
167 1 0.0356896 0.0714542 0.290967 55.845 4.48649e-09 
168 1 0.0357231 0.107154 0.332608 55.845 -1.34578e-07 
169 1 0.0714485 0.107138 0.290975 55.845 -2.03447e-07 
176 1 5.94614e-06 3.21486e-05 0.33261 55.845 -2.36317e-07 
177 1 0.0357477 3.36089e-05 0.290977 55.845 1.89822e-07 
178 1 0.0357222 0.0357345 0.332589 55.845 -7.49069e-08 
179 1 0.0714843 0.0357544 0.290885 55.845 -5.20123e-08 
180 1 0.0713849 0.071448 0.332525 55.845 2.40419e-09 
181 1 0.107113 0.0713924 0.290913 55.845 -6.74914e-08 
182 1 0.107098 0.107139 0.332593 55.845 2.39717e-07 
190 1 0.0714253 -1.90765e-05 0.332608 55.845 1.08378e-07 
191 1 0.107222 3.02907e-05 0.290951 55.845 2.43577e-09 
192 1 0.107134 0.0357142 0.33244 55.845 1.21036e-08 
268 1 -1.71803e-05 0.0713949 0.250247 55.845 -6.65201e-07 
270 1 0.0357191 0.1071 0.250228 55.845 -5.534e-07 
278 1 4.02183e-05 -5.29912e-05 0.25031 55.845 -7.31082e-07 
280 1 0.0357395 0.0357392 0.250234 55.845 -5.53187e-07 
282 1 0.0714095 0.0714214 0.250144 55.845 -4.70685e-07 
284 1 0.107187 0.107172 0.250235 55.845 -3.92014e-07 
292 1 0.0715139 -3.10281e-05 0.250287 55.845 -4.34943e-07 
294 1 0.107128 0.0357066 0.250107 55.845 -4.47639e-07 
16 1 0.142815 0.107145 0.459171 55.845 -1.11659e-07 
21 1 0.142815 0.0357225 0.45912 55.845 7.41292e-08 
22 1 0.178548 0.0714349 0.45909 55.845 1.81229e-08 
23 1 0.214231 0.107068 0.459152 55.845 3.06599e-08 
27 1 0.178558 -5.81506e-05 0.459098 55.845 3.50347e-07 
28 1 0.21427 0.0357492 0.459058 55.845 2.72524e-07 
29 1 0.250036 0.0713446 0.459088 55.845 1.93302e-07 
81 1 0.142785 0.107178 0.374867 55.845 -3.63464e-07 
91 1 0.142836 0.0358189 0.3748 55.845 6.47608e-08 
92 1 0.142788 0.0714696 0.417324 55.845 9.63969e-08 
93 1 0.178529 0.071379 0.374924 55.845 -1.33608e-08 
94 1 0.17855 0.10717 0.417506 55.845 1.94149e-07 
95 1 0.214226 0.107094 0.374878 55.845 -2.09847e-08 
102 1 0.14284 4.59368e-05 0.41732 55.845 -1.56763e-07 
103 1 0.17849 -9.53034e-06 0.374833 55.845 3.79026e-07 
104 1 0.17852 0.035702 0.417364 55.845 -4.25159e-07 
105 1 0.214212 0.0357316 0.374896 55.845 4.45875e-07 
106 1 0.214309 0.071391 0.417317 55.845 -2.32217e-07 
107 1 0.249975 0.0714024 0.374832 55.845 1.47527e-07 
108 1 0.250008 0.107087 0.41725 55.845 1.74367e-07 
118 1 0.214236 2.194e-05 0.417221 55.845 -6.82408e-07 
120 1 0.24994 0.0356408 0.417247 55.845 -5.19687e-07 
183 1 0.142802 0.107084 0.29105 55.845 2.42101e-09 
193 1 0.142842 0.0357397 0.290835 55.845 -2.56517e-08 
194 1 0.142842 0.071468 0.332466 55.845 6.67137e-08 
195 1 0.178594 0.0714586 0.290863 55.845 2.36692e-07 
196 1 0.178547 0.107115 0.332506 55.845 7.19902e-08 
197 1 0.214268 0.107178 0.290947 55.845 4.10325e-07 
204 1 0.142812 9.29762e-05 0.332513 55.845 -8.17896e-08 
205 1 0.178562 -1.10311e-05 0.291023 55.845 2.48695e-07 
206 1 0.178478 0.0358065 0.332492 55.845 -2.33787e-07 
207 1 0.21419 0.0357211 0.291024 55.845 3.98302e-07 
208 1 0.214255 0.0714339 0.332454 55.845 -2.39693e-07 
209 1 0.249981 0.0714131 0.290998 55.845 4.10821e-07 
210 1 0.249952 0.107086 0.332608 55.845 8.39904e-08 
220 1 0.214234 -1.50767e-05 0.33257 55.845 -4.21581e-07 
222 1 0.249958 0.0356848 0.332561 55.845 -2.41017e-07 
296 1 0.142845 0.0714586 0.250157 55.845 -4.82608e-07 
298 1 0.17856 0.107152 0.250287 55.845 -6.08199e-07 
306 1 0.142894 -4.19888e-06 0.250258 55.845 -3.76077e-07 
308 1 0.178543 0.0357099 0.250152 55.845 -4.52177e-07 
310 1 0.21424 0.0713923 0.250231 55.845 -5.22631e-07 
312 1 0.250033 0.107089 0.250203 55.845 -4.44077e-07 
322 1 0.214259 -5.13605e-06 0.250171 55.845 -5.63882e-07 
324 1 0.249997 0.0357335 0.250307 55.845 -4.22717e-07 
30 1 0.285758 0.107113 0.459142 55.845 1.2494e-08 
35 1 0.249959 -4.75441e-05 0.4591 55.845 5.26723e-07 
36 1 0.285659 0.0356878 0.459144 55.845 3.50672e-07 
37 1 0.321415 0.0714014 0.459274 55.845 1.12356e-07 
38 1 0.35711 0.10707 0.459114 55.845 -9.86376e-08 
42 1 0.321373 -4.38934e-05 0.459118 55.845 3.55049e-07 
43 1 0.357167 0.0357536 0.459058 55.845 1.21294e-07 
109 1 0.285692 0.107086 0.374828 55.845 -1.61244e-07 
119 1 0.249968 -7.52558e-05 0.374727 55.845 5.27767e-07 
121 1 0.285666 0.0356913 0.374784 55.845 4.27813e-07 
122 1 0.285744 0.0713656 0.417277 55.845 -5.63457e-09 
123 1 0.321412 0.0714057 0.374768 55.845 -6.12008e-08 
124 1 0.321479 0.107038 0.417288 55.845 1.55684e-07 
125 1 0.357158 0.107171 0.374791 55.845 -1.82662e-07 
133 1 0.321418 -1.03342e-05 0.374729 55.845 3.85431e-07 
134 1 0.321367 0.0356905 0.417331 55.845 -3.81328e-07 
135 1 0.357088 0.0356778 0.374685 55.845 3.08545e-07 
136 1 0.357128 0.0714105 0.417233 55.845 -8.94212e-08 
211 1 0.285698 0.107108 0.290991 55.845 2.23003e-07 
221 1 0.249932 1.67723e-05 0.291002 55.845 4.08468e-07 
223 1 0.285716 0.0356515 0.291073 55.845 2.87891e-07 
224 1 0.285656 0.0713559 0.332513 55.845 6.77303e-09 
225 1 0.321417 0.0715084 0.29088 55.845 7.77525e-08 
226 1 0.321474 0.107135 0.332557 55.845 3.36987e-07 
227 1 0.357124 0.10716 0.290956 55.845 2.30174e-08 
235 1 0.321444 1.29826e-05 0.291054 55.845 2.61233e-07 
236 1 0.321403 0.0357039 0.332466 55.845 1.26643e-07 
237 1 0.357121 0.0357339 0.290968 55.845 -6.93329e-08 
238 1 0.357054 0.0714777 0.332545 55.845 8.73992e-08 
326 1 0.285711 0.0713898 0.250189 55.845 -8.85263e-08 
328 1 0.32142 0.107168 0.250227 55.845 -2.03185e-07 
338 1 0.321415 0.0356869 0.250225 55.845 -9.55355e-08 
340 1 0.357141 0.0714657 0.250226 55.845 -7.3837e-08 
44 1 0.392854 0.0713944 0.459022 55.845 8.37053e-08 
45 1 0.428538 0.107099 0.458987 55.845 1.98156e-07 
47 1 0.392868 -1.03675e-05 0.45908 55.845 1.52427e-07 
48 1 0.428558 0.0358057 0.459139 55.845 2.36437e-07 
49 1 0.464333 0.0713888 0.459219 55.845 1.25032e-07 
50 1 0.464214 -5.67e-05 0.459222 55.845 1.57315e-07 
137 1 0.392891 0.0714437 0.374778 55.845 2.33636e-08 
138 1 0.392823 0.107133 0.41737 55.845 1.41042e-08 
139 1 0.428515 0.107147 0.374869 55.845 1.65044e-07 
144 1 0.392839 5.67024e-05 0.374691 55.845 4.49521e-07 
145 1 0.392869 0.0357085 0.417217 55.845 -1.79864e-07 
146 1 0.428574 0.0357594 0.374878 55.845 3.7e-07 
147 1 0.428571 0.0714508 0.417392 55.845 -2.34244e-07 
148 1 0.464292 0.0714826 0.374908 55.845 2.6327e-07 
149 1 0.464287 0.107129 0.417318 55.845 -3.72408e-07 
150 1 0.428625 1.14237e-05 0.417249 55.845 -1.78464e-07 
151 1 0.464286 -2.37678e-05 0.374833 55.845 5.21755e-07 
152 1 0.464283 0.0356726 0.417295 55.845 -2.15061e-07 
239 1 0.392871 0.0714588 0.290955 55.845 -3.54553e-08 
240 1 0.392838 0.107163 0.332515 55.845 8.94281e-08 
241 1 0.428505 0.107172 0.290905 55.845 1.0621e-07 
246 1 0.392812 1.74388e-05 0.290941 55.845 9.94937e-08 
247 1 0.392814 0.0357747 0.332579 55.845 -3.28792e-09 
248 1 0.428599 0.0357878 0.291096 55.845 1.21169e-07 
249 1 0.428609 0.0715183 0.332527 55.845 -4.25693e-08 
250 1 0.464294 0.07143 0.29107 55.845 3.98528e-07 
251 1 0.464286 0.107127 0.332518 55.845 -1.42895e-07 
252 1 0.428594 -2.08931e-05 0.332447 55.845 -2.6202e-08 
253 1 0.464268 -3.38209e-05 0.291098 55.845 4.02435e-07 
254 1 0.464311 0.0357683 0.33255 55.845 -7.57334e-08 
342 1 0.392823 0.107212 0.25018 55.845 -1.34068e-07 
349 1 0.39283 0.0356937 0.250195 55.845 -1.85594e-07 
351 1 0.428538 0.0714154 0.250333 55.845 -3.27979e-07 
353 1 0.464288 0.107121 0.25025 55.845 -4.92107e-07 
354 1 0.428621 -2.2457e-05 0.250257 55.845 -4.52012e-07 
356 1 0.464278 0.0357552 0.250385 55.845 -4.06928e-07 
1 1 1.18527e-05 0.178622 0.459216 55.845 1.90024e-07 
2 1 0.0357162 0.214249 0.4591 55.845 1.11259e-07 
4 1 0.0356587 0.142749 0.45929 55.845 2.36107e-07 
5 1 0.071411 0.17853 0.459215 55.845 -1.9217e-08 
6 1 0.107164 0.214304 0.459134 55.845 3.91691e-08 
10 1 0.107192 0.142819 0.45923 55.845 -1.38636e-07 
51 1 2.4237e-05 0.178545 0.374823 55.845 3.97903e-07 
52 1 4.96893e-06 0.21422 0.417385 55.845 -3.77577e-07 
53 1 0.0357431 0.214242 0.37493 55.845 1.21168e-07 
54 1 0.0356865 0.24996 0.417335 55.845 -1.44071e-07 
56 1 -5.04382e-06 0.142914 0.417421 55.845 -2.87427e-07 
57 1 0.0357362 0.142824 0.374834 55.845 1.96992e-07 
58 1 0.0357352 0.178557 0.417331 55.845 -9.74557e-08 
59 1 0.071365 0.17861 0.374841 55.845 6.98939e-08 
60 1 0.0714811 0.214209 0.417436 55.845 5.46171e-08 
61 1 0.107107 0.214239 0.374781 55.845 2.65046e-08 
62 1 0.107199 0.24996 0.417174 55.845 7.54886e-08 
68 1 0.0714 0.14284 0.417367 55.845 2.89133e-07 
69 1 0.107079 0.142832 0.374877 55.845 -1.82536e-07 
70 1 0.10708 0.178574 0.417333 55.845 3.62494e-07 
153 1 3.63167e-05 0.178594 0.291038 55.845 1.72763e-07 
154 1 1.20781e-05 0.214298 0.332578 55.845 -1.73751e-07 
155 1 0.0357116 0.214286 0.291103 55.845 1.77732e-07 
156 1 0.0357181 0.249952 0.332616 55.845 4.43507e-08 
158 1 1.57355e-05 0.142847 0.332511 55.845 -1.89955e-07 
159 1 0.0357182 0.142843 0.291026 55.845 -6.04089e-08 
160 1 0.0357328 0.178579 0.332539 55.845 8.58906e-08 
161 1 0.071387 0.178525 0.291126 55.845 -1.2056e-07 
162 1 0.0714053 0.214314 0.332557 55.845 8.4236e-08 
163 1 0.1071 0.214204 0.291059 55.845 1.68399e-08 
164 1 0.107109 0.249925 0.332427 55.845 2.32312e-08 
170 1 0.0714369 0.142824 0.332625 55.845 2.10616e-07 
171 1 0.107166 0.142878 0.290879 55.845 -1.61638e-07 
172 1 0.107115 0.178518 0.332573 55.845 1.43654e-07 
256 1 -3.85558e-05 0.214267 0.250414 55.845 -3.36076e-07 
258 1 0.0356806 0.249972 0.250339 55.845 -3.49001e-07 
260 1 7.5634e-05 0.142873 0.250179 55.845 -4.54213e-07 
262 1 0.0357262 0.178559 0.250262 55.845 -3.69391e-07 
264 1 0.071452 0.214254 0.250345 55.845 -2.2074e-07 
266 1 0.107105 0.250029 0.250238 55.845 -3.56019e-07 
272 1 0.0714207 0.14286 0.25028 55.845 -3.54061e-07 
274 1 0.107036 0.178563 0.250181 55.845 -3.86981e-07 
11 1 0.142832 0.178567 0.459141 55.845 -1.06794e-07 
12 1 0.178539 0.214253 0.459027 55.845 2.25079e-07 
17 1 0.178561 0.142856 0.459216 55.845 -1.69104e-07 
18 1 0.214228 0.178551 0.45908 55.845 4.88124e-08 
19 1 0.249978 0.214227 0.459107 55.845 2.97634e-07 
24 1 0.250038 0.142767 0.459067 55.845 -1.03493e-07 
71 1 0.142786 0.178535 0.374857 55.845 -2.27733e-07 
72 1 0.142872 0.214247 0.417305 55.845 2.37295e-07 
73 1 0.178593 0.21422 0.374795 55.845 5.29032e-08 
82 1 0.142848 0.142821 0.417332 55.845 3.80681e-07 
83 1 0.178504 0.142828 0.374776 55.845 -1.59571e-07 
84 1 0.178595 0.178511 0.417263 55.845 1.21788e-07 
85 1 0.214295 0.178547 0.374815 55.845 2.35736e-08 
86 1 0.214241 0.214279 0.417287 55.845 -1.17582e-07 
87 1 0.249922 0.214258 0.374779 55.845 9.35226e-08 
96 1 0.214241 0.142844 0.41739 55.845 2.14593e-07 
97 1 0.249968 0.142832 0.374807 55.845 -1.40593e-07 
98 1 0.250032 0.178534 0.417386 55.845 2.3852e-07 
173 1 0.14282 0.178572 0.290997 55.845 -9.71903e-08 
174 1 0.142881 0.214305 0.332612 55.845 -1.96465e-07 
175 1 0.178497 0.214284 0.290989 55.845 8.12007e-08 
184 1 0.142793 0.142823 0.332494 55.845 1.23066e-07 
185 1 0.178589 0.142849 0.290914 55.845 7.99323e-08 
186 1 0.178549 0.178545 0.332569 55.845 -1.17726e-07 
187 1 0.214281 0.178547 0.290975 55.845 1.71498e-07 
188 1 0.214282 0.214281 0.332611 55.845 -3.35524e-07 
189 1 0.249923 0.214197 0.29107 55.845 1.47017e-07 
198 1 0.214258 0.142875 0.332593 55.845 1.31452e-08 
199 1 0.249973 0.142799 0.291015 55.845 2.2359e-07 
200 1 0.250012 0.178544 0.332596 55.845 9.78343e-08 
276 1 0.142754 0.214257 0.250341 55.845 -5.48944e-07 
286 1 0.142866 0.142819 0.250266 55.845 -5.10608e-07 
288 1 0.178558 0.178637 0.250249 55.845 -7.1796e-07 
290 1 0.214296 0.214261 0.250229 55.845 -7.06463e-07 
300 1 0.21428 0.142888 0.250227 55.845 -6.632e-07 
302 1 0.250001 0.178541 0.250272 55.845 -5.38051e-07 
25 1 0.285733 0.17852 0.459037 55.845 -1.27634e-07 
26 1 0.321466 0.214224 0.459188 55.845 -1.70681e-07 
31 1 0.321382 0.142831 0.459181 55.845 -5.81664e-08 
32 1 0.357174 0.178589 0.459256 55.845 -2.61007e-07 
99 1 0.285738 0.178578 0.374842 55.845 -1.10029e-07 
100 1 0.285698 0.214303 0.417332 55.845 2.75978e-07 
101 1 0.321486 0.21427 0.374945 55.845 -3.11618e-08 
110 1 0.285764 0.14281 0.417236 55.845 4.00361e-07 
111 1 0.321449 0.142892 0.374802 55.845 -2.53865e-07 
112 1 0.321507 0.178575 0.417264 55.845 3.64952e-07 
113 1 0.357154 0.178569 0.374896 55.845 -1.10763e-07 
114 1 0.357178 0.2143 0.417241 55.845 2.33537e-07 
126 1 0.357055 0.14289 0.417384 55.845 3.25826e-07 
201 1 0.285695 0.178518 0.291042 55.845 1.27728e-07 
202 1 0.285703 0.214271 0.332602 55.845 5.04855e-08 
203 1 0.321455 0.214234 0.291152 55.845 1.7478e-07 
212 1 0.285664 0.142811 0.332666 55.845 2.49162e-07 
213 1 0.321415 0.142855 0.291138 55.845 1.30256e-07 
214 1 0.32143 0.178594 0.332574 55.845 3.48447e-07 
215 1 0.357152 0.178566 0.291059 55.845 2.1098e-07 
216 1 0.357168 0.21435 0.332588 55.845 9.40499e-08 