ITEM: TIMESTEP
5300
ITEM: NUMBER OF ATOMS
5880
ITEM: BOX BOUNDS pp pp ff
-27.9418 27.9418
-27.9418 27.9418
0 34.092
ITEM: ATOMS id type xs ys zs mass q 
259 1 -1.04428e-05 0.107049 0.209224 55.845 -1.86103e-08 
267 1 9.65243e-06 0.0356653 0.209191 55.845 -6.5006e-08 
269 1 0.0357827 0.0713151 0.209215 55.845 -4.29563e-08 
271 1 0.0714837 0.107093 0.209306 55.845 -1.07796e-07 
279 1 0.0356867 4.97252e-05 0.209021 55.845 -6.79248e-08 
281 1 0.0714418 0.0356686 0.209083 55.845 -6.61048e-08 
283 1 0.107041 0.0714678 0.209184 55.845 -1.29906e-07 
293 1 0.107219 3.68162e-05 0.209135 55.845 -4.59338e-08 
361 1 -1.16805e-05 0.107189 0.126106 55.845 -1.82209e-07 
369 1 -2.32844e-05 0.0357448 0.126001 55.845 -1.76523e-07 
370 1 0.000101986 0.0713845 0.168344 55.845 1.4831e-07 
371 1 0.0357125 0.0714227 0.125871 55.845 -1.7787e-07 
372 1 0.0357328 0.107122 0.168323 55.845 1.35987e-07 
373 1 0.0714076 0.107078 0.125936 55.845 -1.17716e-07 
380 1 1.40102e-05 -6.21666e-05 0.168171 55.845 1.45689e-07 
381 1 0.0357599 1.53452e-05 0.125992 55.845 -1.20422e-07 
382 1 0.0357887 0.0357195 0.168028 55.845 1.56632e-07 
383 1 0.071462 0.0356852 0.125978 55.845 -1.45928e-07 
384 1 0.071403 0.0714424 0.168161 55.845 1.34575e-07 
385 1 0.107149 0.0714172 0.126009 55.845 -1.06775e-07 
386 1 0.107131 0.107232 0.16831 55.845 1.04677e-07 
394 1 0.0714026 3.5912e-06 0.168198 55.845 1.49719e-07 
395 1 0.107096 -2.29721e-05 0.126071 55.845 -1.65498e-07 
396 1 0.107117 0.035746 0.168159 55.845 1.34155e-07 
463 1 0 0.107143 0.0416667 55.845 -2.86747e-07 
471 1 0 0.0357143 0.0416667 55.845 -2.82974e-07 
472 1 -2.75081e-05 0.07145 0.0841871 55.845 4.14248e-08 
473 1 0.0357143 0.0714286 0.0416667 55.845 -2.94489e-07 
474 1 0.0356766 0.107139 0.084178 55.845 1.45185e-07 
475 1 0.0714286 0.107143 0.0416667 55.845 -1.63948e-07 
482 1 8.13542e-06 -9.68982e-06 0.0842379 55.845 2.2041e-07 
483 1 0.0357143 0 0.0416667 55.845 -2.24419e-07 
484 1 0.0357308 0.0357087 0.0839878 55.845 1.02963e-07 
485 1 0.0714286 0.0357143 0.0416667 55.845 -2.68155e-07 
486 1 0.0714487 0.0714136 0.0841726 55.845 1.43698e-07 
487 1 0.107143 0.0714286 0.0416667 55.845 -1.55241e-07 
488 1 0.107156 0.107135 0.084047 55.845 1.56814e-07 
496 1 0.071411 -1.11632e-05 0.0840425 55.845 9.89476e-08 
497 1 0.107143 0 0.0416667 55.845 -2.97075e-07 
498 1 0.10717 0.0356897 0.0841722 55.845 1.45494e-07 
567 1 0 0.0714286 0 55.845 5.56143e-08 
568 1 0.0357143 0.107143 0 55.845 1.54344e-07 
572 1 0 0 0 55.845 2.48946e-07 
573 1 0.0357143 0.0357143 0 55.845 1.10022e-07 
574 1 0.0714286 0.0714286 0 55.845 1.6557e-07 
575 1 0.107143 0.107143 0 55.845 1.92336e-07 
579 1 0.0714286 0 0 55.845 9.50487e-08 
580 1 0.107143 0.0357143 0 55.845 1.70717e-07 
285 1 0.142868 0.107126 0.209204 55.845 -6.78427e-08 
295 1 0.142839 0.0356469 0.209152 55.845 -9.19966e-08 
297 1 0.178595 0.0714703 0.209128 55.845 -4.07513e-08 
299 1 0.214263 0.107087 0.209201 55.845 1.46008e-08 
307 1 0.178553 2.69485e-05 0.209124 55.845 -9.72492e-08 
309 1 0.214221 0.0356681 0.209242 55.845 -3.10233e-08 
311 1 0.249994 0.0714369 0.209247 55.845 2.22647e-08 
387 1 0.142787 0.107188 0.12606 55.845 -1.11932e-07 
397 1 0.142912 0.0355921 0.126014 55.845 -1.10588e-07 
398 1 0.142748 0.0713772 0.168241 55.845 1.45625e-07 
399 1 0.178554 0.0714345 0.125887 55.845 -8.31007e-08 
400 1 0.1786 0.107128 0.168175 55.845 1.37994e-07 
401 1 0.214265 0.10716 0.125988 55.845 -7.41028e-08 
408 1 0.142893 -6.01121e-05 0.168331 55.845 1.36548e-07 
409 1 0.17861 -0.000114619 0.126002 55.845 -1.23269e-07 
410 1 0.178528 0.0357109 0.168232 55.845 1.45462e-07 
411 1 0.2142 0.0356585 0.125939 55.845 -1.316e-07 
412 1 0.214335 0.0713478 0.16831 55.845 1.61451e-07 
413 1 0.250154 0.0714059 0.126062 55.845 -1.2576e-07 
414 1 0.250072 0.107103 0.168043 55.845 1.03517e-07 
424 1 0.214364 6.73395e-05 0.168221 55.845 1.13787e-07 
426 1 0.24999 0.0358148 0.168174 55.845 1.08038e-07 
489 1 0.142857 0.107143 0.0416667 55.845 -2.14895e-07 
499 1 0.142857 0.0357143 0.0416667 55.845 -2.05225e-07 
500 1 0.142934 0.0714354 0.0842402 55.845 1.80264e-07 
501 1 0.178571 0.0714286 0.0416667 55.845 -2.24252e-07 
502 1 0.178597 0.107176 0.0840935 55.845 1.40757e-07 
503 1 0.214286 0.107143 0.0416667 55.845 -2.16229e-07 
510 1 0.142885 -3.62109e-05 0.0841717 55.845 1.43697e-07 
511 1 0.178571 0 0.0416667 55.845 -2.12809e-07 
512 1 0.178534 0.035747 0.084005 55.845 1.67477e-07 
513 1 0.214286 0.0357143 0.0416667 55.845 -2.59671e-07 
514 1 0.214449 0.0714343 0.0841443 55.845 1.00496e-07 
515 1 0.25 0.0714286 0.0416667 55.845 -2.72512e-07 
516 1 0.249984 0.107187 0.0840728 55.845 1.11864e-07 
526 1 0.2143 -9.13659e-05 0.0842342 55.845 1.57304e-07 
528 1 0.250027 0.0356535 0.0841648 55.845 4.7041e-08 
581 1 0.142857 0.0714286 0 55.845 2.02122e-07 
582 1 0.178571 0.107143 0 55.845 1.47584e-07 
586 1 0.142857 0 0 55.845 1.48939e-07 
587 1 0.178571 0.0357143 0 55.845 1.69831e-07 
588 1 0.214286 0.0714286 0 55.845 1.18116e-07 
589 1 0.25 0.107143 0 55.845 1.76689e-07 
594 1 0.214286 0 0 55.845 1.60633e-07 
595 1 0.25 0.0357143 0 55.845 8.51929e-08 
313 1 0.285734 0.107087 0.209257 55.845 -2.07028e-08 
323 1 0.250047 0.000169255 0.209047 55.845 -7.63503e-08 
325 1 0.285723 0.0357453 0.209093 55.845 -3.40494e-08 
327 1 0.32148 0.0713221 0.209152 55.845 -5.03304e-08 
329 1 0.357115 0.107093 0.209136 55.845 -1.90941e-08 
337 1 0.321461 1.90088e-05 0.209067 55.845 -4.68365e-08 
339 1 0.357203 0.035706 0.209109 55.845 -5.23494e-08 
415 1 0.285849 0.1071 0.125836 55.845 -1.04683e-07 
425 1 0.250047 -3.30699e-05 0.125996 55.845 -1.65633e-07 
427 1 0.285711 0.0356659 0.125906 55.845 -1.50397e-07 
428 1 0.285768 0.0713537 0.16817 55.845 8.20734e-08 
429 1 0.321454 0.0714692 0.125858 55.845 -9.50552e-08 
430 1 0.321397 0.107171 0.168194 55.845 4.81192e-08 
431 1 0.357282 0.107104 0.125902 55.845 -1.01921e-07 
439 1 0.321479 3.13093e-05 0.125929 55.845 -1.09434e-07 
440 1 0.321481 0.0356899 0.168196 55.845 7.96462e-08 
441 1 0.357115 0.0357301 0.125917 55.845 -5.22998e-08 
442 1 0.357235 0.0714095 0.168276 55.845 8.35689e-08 
517 1 0.285714 0.107143 0.0416667 55.845 -1.9012e-07 
527 1 0.25 0 0.0416667 55.845 -2.46671e-07 
529 1 0.285714 0.0357143 0.0416667 55.845 -2.58511e-07 
530 1 0.285757 0.0713378 0.0840069 55.845 5.29467e-08 
531 1 0.321429 0.0714286 0.0416667 55.845 -1.60312e-07 
532 1 0.321411 0.107223 0.0841406 55.845 1.20854e-07 
533 1 0.357143 0.107143 0.0416667 55.845 -1.90074e-07 
603 1 0.357143 0.0714286 0 55.845 2.51424e-07 
541 1 0.321429 0 0.0416667 55.845 -2.08382e-07 
542 1 0.32146 0.035706 0.0840988 55.845 1.2513e-07 
543 1 0.357143 0.0357143 0.0416667 55.845 -1.24921e-07 
544 1 0.357148 0.0714846 0.0840304 55.845 1.99473e-07 
602 1 0.321429 0.0357143 0 55.845 1.67555e-07 
596 1 0.285714 0.0714286 0 55.845 1.27911e-07 
597 1 0.321429 0.107143 0 55.845 1.84417e-07 
612 1 0.464286 0.0357143 0 55.845 1.09823e-07 
611 1 0.428571 0 0 55.845 9.50151e-08 
610 1 0.464286 0.107143 0 55.845 1.35363e-07 
609 1 0.428571 0.0714286 0 55.845 1.99369e-07 
608 1 0.392857 0.0357143 0 55.845 2.19716e-07 
341 1 0.392894 0.071458 0.209102 55.845 -6.80594e-08 
343 1 0.428639 0.107144 0.209322 55.845 -5.70094e-08 
348 1 0.392842 3.63171e-05 0.209108 55.845 1.54573e-08 
350 1 0.428579 0.035733 0.209137 55.845 -3.26673e-08 
352 1 0.464295 0.0714572 0.209198 55.845 -4.22545e-08 
355 1 0.464322 -3.67857e-05 0.209301 55.845 -8.90156e-10 
443 1 0.392991 0.0714087 0.125974 55.845 -3.72553e-08 
444 1 0.392889 0.107187 0.168307 55.845 1.00288e-07 
445 1 0.428672 0.1071 0.126134 55.845 -1.19566e-07 
604 1 0.392857 0.107143 0 55.845 1.93244e-07 
450 1 0.39285 9.00562e-06 0.125874 55.845 -9.78365e-08 
451 1 0.392897 0.0357286 0.168188 55.845 9.99912e-08 
452 1 0.42858 0.0357513 0.126116 55.845 -6.8924e-08 
453 1 0.428677 0.071408 0.168228 55.845 1.01925e-07 
454 1 0.464395 0.0714728 0.126105 55.845 -1.26426e-07 
455 1 0.464309 0.107171 0.168302 55.845 1.00364e-07 
456 1 0.428582 -2.13683e-05 0.168294 55.845 8.36338e-08 
457 1 0.464303 -6.77514e-05 0.125946 55.845 -7.44709e-08 
458 1 0.464372 0.0356967 0.168295 55.845 8.01338e-08 
545 1 0.392857 0.0714286 0.0416667 55.845 -9.88304e-08 
546 1 0.392923 0.10713 0.0840211 55.845 1.55212e-07 
547 1 0.428571 0.107143 0.0416667 55.845 -2.08146e-07 
552 1 0.392857 0 0.0416667 55.845 -2.36967e-07 
553 1 0.39284 0.0356433 0.0841431 55.845 1.6007e-07 
554 1 0.428571 0.0357143 0.0416667 55.845 -1.78868e-07 
555 1 0.428628 0.071381 0.0842008 55.845 1.44767e-07 
556 1 0.464286 0.0714286 0.0416667 55.845 -2.40926e-07 
557 1 0.464222 0.107108 0.0840875 55.845 1.11579e-07 
558 1 0.428571 1.88473e-06 0.084187 55.845 4.29913e-08 
559 1 0.464286 0 0.0416667 55.845 -2.04409e-07 
560 1 0.464297 0.0357625 0.0842916 55.845 6.13874e-08 
255 1 0.00013174 0.178647 0.209247 55.845 -1.07392e-07 
257 1 0.035793 0.214277 0.20918 55.845 -4.56505e-08 
261 1 0.035702 0.142877 0.209162 55.845 -8.41067e-08 
263 1 0.0714161 0.17853 0.209316 55.845 -2.52905e-08 
265 1 0.10717 0.214293 0.209158 55.845 7.5029e-09 
273 1 0.107125 0.142805 0.209211 55.845 -5.1678e-08 
357 1 -5.14293e-05 0.178571 0.125901 55.845 -7.04977e-08 
358 1 1.87628e-05 0.214322 0.168293 55.845 8.20583e-08 
359 1 0.0357472 0.214301 0.126201 55.845 -1.16137e-07 
360 1 0.0357621 0.250045 0.168233 55.845 9.59075e-08 
362 1 1.45933e-05 0.142843 0.168349 55.845 1.13099e-07 
363 1 0.0356497 0.142822 0.126079 55.845 -8.32822e-08 
364 1 0.035672 0.178553 0.16826 55.845 1.23326e-07 
365 1 0.0713599 0.178507 0.126082 55.845 -1.21103e-07 
366 1 0.0714349 0.214326 0.168255 55.845 1.21424e-07 
367 1 0.107112 0.214297 0.125895 55.845 -1.41164e-07 
368 1 0.107127 0.249953 0.168188 55.845 1.24287e-07 
374 1 0.0714064 0.142729 0.168341 55.845 1.2316e-07 
375 1 0.107147 0.142902 0.126065 55.845 -1.57835e-07 
376 1 0.107142 0.178582 0.16817 55.845 1.0857e-07 
459 1 0 0.178571 0.0416667 55.845 -6.48552e-08 
460 1 4.24959e-05 0.214288 0.0841994 55.845 2.03666e-07 
461 1 0.0357143 0.214286 0.0416667 55.845 -2.01605e-07 
462 1 0.0358495 0.250037 0.0841114 55.845 5.97165e-08 
464 1 -1.59075e-05 0.142874 0.0841338 55.845 2.18349e-07 
465 1 0.0357143 0.142857 0.0416667 55.845 -1.15094e-07 
466 1 0.0356595 0.178518 0.0841929 55.845 2.23743e-07 
467 1 0.0714286 0.178571 0.0416667 55.845 -2.24961e-07 
468 1 0.0713639 0.21422 0.0841323 55.845 7.57972e-08 
469 1 0.107143 0.214286 0.0416667 55.845 -2.82835e-07 
470 1 0.107154 0.250019 0.0840379 55.845 1.29716e-07 
476 1 0.0714511 0.142896 0.0841721 55.845 1.57876e-07 
477 1 0.107143 0.142857 0.0416667 55.845 -2.55344e-07 
478 1 0.107124 0.178517 0.0840232 55.845 2.29993e-08 
561 1 0 0.214286 0 55.845 2.43357e-07 
562 1 0.0357143 0.25 0 55.845 8.60816e-08 
563 1 0 0.142857 0 55.845 2.29556e-07 
564 1 0.0357143 0.178571 0 55.845 2.49972e-07 
565 1 0.0714286 0.214286 0 55.845 8.34507e-08 
566 1 0.107143 0.25 0 55.845 1.36353e-07 
569 1 0.0714286 0.142857 0 55.845 1.80119e-07 
570 1 0.107143 0.178571 0 55.845 6.19318e-08 
275 1 0.142835 0.178501 0.20906 55.845 -1.07112e-09 
277 1 0.178507 0.21421 0.209119 55.845 -4.64808e-08 
287 1 0.178591 0.142785 0.209101 55.845 -1.56392e-08 
289 1 0.214279 0.178579 0.209174 55.845 -4.99177e-08 
291 1 0.249981 0.214231 0.209241 55.845 -7.54999e-09 
301 1 0.249982 0.14287 0.209161 55.845 -4.32719e-08 
377 1 0.142922 0.178602 0.125869 55.845 -1.70597e-07 
378 1 0.142752 0.214253 0.168157 55.845 8.64838e-08 
379 1 0.178504 0.214264 0.125971 55.845 -9.07462e-08 
388 1 0.142871 0.142794 0.168207 55.845 9.59882e-08 
389 1 0.178561 0.142888 0.125862 55.845 -1.09193e-07 
390 1 0.178561 0.178511 0.168228 55.845 7.15937e-08 
391 1 0.214284 0.178564 0.126069 55.845 -7.19652e-08 
392 1 0.214289 0.214241 0.1682 55.845 5.57827e-08 
393 1 0.25002 0.214356 0.126058 55.845 -1.12512e-07 
402 1 0.214282 0.142851 0.168334 55.845 9.60036e-08 
403 1 0.250017 0.142917 0.125995 55.845 -5.34127e-08 
404 1 0.249958 0.178599 0.168271 55.845 4.60343e-08 
479 1 0.142857 0.178571 0.0416667 55.845 -2.94958e-07 
480 1 0.142893 0.214279 0.0840622 55.845 1.03912e-07 
481 1 0.178571 0.214286 0.0416667 55.845 -1.45191e-07 
490 1 0.142858 0.142836 0.0840536 55.845 6.70118e-08 
491 1 0.178571 0.142857 0.0416667 55.845 -2.37149e-07 
492 1 0.178589 0.178588 0.0839594 55.845 1.17189e-07 
493 1 0.214286 0.178571 0.0416667 55.845 -1.28328e-07 
494 1 0.214299 0.214168 0.0840881 55.845 1.36849e-07 
495 1 0.25 0.214286 0.0416667 55.845 -1.93246e-07 
504 1 0.214327 0.142869 0.0840601 55.845 1.7032e-07 
505 1 0.25 0.142857 0.0416667 55.845 -1.24485e-07 
506 1 0.249979 0.178585 0.0841181 55.845 1.37761e-07 
571 1 0.142857 0.214286 0 55.845 1.45749e-07 
576 1 0.142857 0.142857 0 55.845 1.00413e-07 
577 1 0.178571 0.178571 0 55.845 1.6989e-07 
578 1 0.214286 0.214286 0 55.845 2.05463e-07 
583 1 0.214286 0.142857 0 55.845 2.13026e-07 
584 1 0.25 0.178571 0 55.845 2.16826e-07 
303 1 0.285635 0.178523 0.209097 55.845 -3.84376e-08 
305 1 0.321374 0.214288 0.2092 55.845 -5.37126e-09 
315 1 0.321481 0.142825 0.209203 55.845 -2.17779e-08 
317 1 0.357162 0.178627 0.209144 55.845 2.86375e-09 
405 1 0.285667 0.178743 0.126017 55.845 -1.14019e-07 
406 1 0.285703 0.214287 0.168316 55.845 9.90356e-08 
407 1 0.321493 0.214264 0.126011 55.845 -1.40274e-07 
416 1 0.285761 0.142862 0.168233 55.845 4.74991e-08 
417 1 0.321492 0.142889 0.126041 55.845 -1.4493e-07 
418 1 0.321405 0.178536 0.168443 55.845 8.50693e-08 
419 1 0.357117 0.178597 0.126064 55.845 -1.78828e-07 
420 1 0.357062 0.214311 0.168392 55.845 1.63125e-07 
432 1 0.357154 0.142854 0.168159 55.845 8.91397e-08 
507 1 0.285714 0.178571 0.0416667 55.845 -1.92795e-07 
508 1 0.285759 0.214285 0.0840143 55.845 3.55552e-08 
509 1 0.321429 0.214286 0.0416667 55.845 -2.62944e-07 
518 1 0.285739 0.142837 0.084146 55.845 1.19529e-07 
519 1 0.321429 0.142857 0.0416667 55.845 -2.40162e-07 
520 1 0.321443 0.178554 0.0841644 55.845 6.64729e-08 
521 1 0.357143 0.178571 0.0416667 55.845 -3.13015e-07 
522 1 0.357144 0.214225 0.084117 55.845 1.59774e-07 
534 1 0.357177 0.142804 0.0840717 55.845 7.46726e-08 
585 1 0.285714 0.214286 0 55.845 8.92068e-08 
590 1 0.285714 0.142857 0 55.845 2.00717e-07 
591 1 0.321429 0.178571 0 55.845 1.05596e-07 
592 1 0.357143 0.214286 0 55.845 1.6206e-07 
598 1 0.357143 0.142857 0 55.845 1.10714e-07 
319 1 0.392862 0.214317 0.209202 55.845 -1.06295e-07 
321 1 0.428545 0.249986 0.209138 55.845 -1.79743e-07 
331 1 0.392826 0.142866 0.209231 55.845 9.9241e-09 
333 1 0.428615 0.178542 0.209193 55.845 -7.02387e-08 
335 1 0.46433 0.214315 0.209077 55.845 -1.54473e-07 
345 1 0.464346 0.142864 0.209195 55.845 -9.23727e-08 
606 1 0.464286 0.178571 0 55.845 1.79269e-07 
421 1 0.392889 0.214286 0.126018 55.845 -1.32033e-07 
422 1 0.392754 0.25001 0.168231 55.845 1.92268e-07 
423 1 0.428568 0.24999 0.126089 55.845 -1.40413e-07 
433 1 0.392883 0.142881 0.125876 55.845 -1.74674e-07 
434 1 0.392857 0.178557 0.168113 55.845 1.57298e-07 
435 1 0.428605 0.178601 0.126082 55.845 -1.79692e-07 
436 1 0.428615 0.214292 0.16823 55.845 1.87384e-07 
437 1 0.464258 0.21425 0.126029 55.845 -2.01428e-07 
605 1 0.428571 0.142857 0 55.845 1.37746e-07 
446 1 0.428541 0.142772 0.168308 55.845 1.40384e-07 
447 1 0.464389 0.142882 0.126 55.845 -1.37655e-07 
448 1 0.464355 0.178517 0.168285 55.845 1.58635e-07 
523 1 0.392857 0.214286 0.0416667 55.845 -1.91006e-07 
524 1 0.392847 0.250014 0.0841874 55.845 3.17913e-07 
525 1 0.428571 0.25 0.0416667 55.845 -1.52595e-07 
535 1 0.392857 0.142857 0.0416667 55.845 -3.04188e-07 
536 1 0.392888 0.17861 0.0840703 55.845 1.09456e-07 
537 1 0.428571 0.178571 0.0416667 55.845 -2.657e-07 
538 1 0.428548 0.214309 0.0839911 55.845 1.94417e-07 
539 1 0.464286 0.214286 0.0416667 55.845 -2.47854e-07 
548 1 0.428616 0.142781 0.0842203 55.845 1.22841e-07 
549 1 0.464286 0.142857 0.0416667 55.845 -2.07084e-07 
550 1 0.464329 0.178597 0.0840646 55.845 1.81519e-07 
593 1 0.392857 0.25 0 55.845 2.85729e-07 
599 1 0.392857 0.178571 0 55.845 1.14881e-07 
600 1 0.428571 0.214286 0 55.845 2.01037e-07 
3 1 -2.66325e-05 0.107126 0.460912 55.845 -1.34669e-07 
7 1 4.745e-05 0.0357227 0.46089 55.845 -8.5736e-08 
8 1 0.0357327 0.0713836 0.460856 55.845 -1.24213e-07 
9 1 0.0714689 0.107091 0.460994 55.845 -3.38017e-08 
13 1 0.0357224 -5.78138e-05 0.460928 55.845 -3.87058e-08 
14 1 0.0714186 0.0357783 0.460714 55.845 -5.66627e-08 
15 1 0.107217 0.071433 0.460744 55.845 -8.41494e-09 
20 1 0.107125 2.24533e-05 0.460637 55.845 -6.18313e-08 
55 1 -1.70435e-05 0.10702 0.376875 55.845 -5.98147e-08 
63 1 -5.45733e-05 0.0356293 0.376724 55.845 -5.97238e-08 
64 1 -3.94034e-05 0.0713293 0.418856 55.845 8.42758e-08 
65 1 0.0357687 0.0714197 0.376821 55.845 -1.09602e-08 
66 1 0.0356708 0.107065 0.418779 55.845 9.37542e-08 
67 1 0.0714438 0.107112 0.376782 55.845 -1.65913e-08 
74 1 7.40685e-05 2.14317e-05 0.418709 55.845 1.07276e-07 
75 1 0.0356673 -5.63114e-05 0.376728 55.845 -4.99607e-08 
76 1 0.0357122 0.0356764 0.418664 55.845 1.02077e-07 
77 1 0.0714284 0.0357049 0.376594 55.845 -1.58688e-08 
78 1 0.0715126 0.0715141 0.418703 55.845 9.554e-08 
79 1 0.107256 0.0714455 0.376713 55.845 -6.80004e-08 
80 1 0.10717 0.107167 0.418683 55.845 8.00037e-08 
88 1 0.0713892 2.32257e-05 0.418654 55.845 1.04903e-07 
89 1 0.107147 -2.15852e-05 0.376652 55.845 -1.98436e-08 
90 1 0.107169 0.0356941 0.418635 55.845 1.0182e-07 
157 1 -4.19178e-05 0.107166 0.292087 55.845 1.10539e-07 
165 1 -1.40871e-05 0.0357082 0.291939 55.845 8.17549e-08 
166 1 -6.30856e-05 0.0713071 0.33488 55.845 5.24238e-08 
167 1 0.0356801 0.0713886 0.291716 55.845 1.53364e-07 
168 1 0.0357416 0.107072 0.334781 55.845 -3.1317e-08 
169 1 0.0715045 0.107104 0.291718 55.845 5.65203e-08 
176 1 4.41339e-05 -3.90215e-05 0.334696 55.845 -1.21366e-07 
177 1 0.0357058 -2.55793e-05 0.291758 55.845 8.72513e-08 
178 1 0.0356663 0.0357288 0.334863 55.845 5.90768e-09 
179 1 0.0713789 0.0357335 0.291856 55.845 1.18977e-07 
180 1 0.0714299 0.0714903 0.334751 55.845 -6.44405e-08 
181 1 0.107135 0.0713953 0.291729 55.845 1.02661e-08 
182 1 0.107147 0.107175 0.334574 55.845 -1.25771e-07 
190 1 0.0713744 -6.11801e-05 0.334704 55.845 -5.85713e-09 
191 1 0.107184 -2.11078e-05 0.291822 55.845 1.16351e-07 
192 1 0.107169 0.0357365 0.3346 55.845 -9.63075e-08 
268 1 -4.14952e-05 0.071414 0.250179 55.845 6.76872e-08 
270 1 0.0357654 0.107126 0.250119 55.845 -1.89998e-08 
278 1 -2.88662e-05 4.5978e-05 0.250185 55.845 -9.90447e-08 
280 1 0.0357039 0.035672 0.250243 55.845 3.31953e-08 
282 1 0.071402 0.0714107 0.250217 55.845 -3.75858e-08 
284 1 0.107126 0.107146 0.250227 55.845 -8.2665e-08 
292 1 0.0714246 -8.35258e-05 0.25008 55.845 8.9755e-09 
294 1 0.107109 0.0356711 0.250039 55.845 -6.38127e-08 
16 1 0.142886 0.107134 0.4609 55.845 -3.51144e-08 
21 1 0.14285 0.0356956 0.46085 55.845 -3.00895e-08 
22 1 0.178584 0.0714286 0.460701 55.845 -4.99564e-08 
23 1 0.214256 0.107173 0.460684 55.845 -5.13196e-08 
27 1 0.178562 -6.3947e-05 0.460704 55.845 -5.62014e-08 
28 1 0.214336 0.0356309 0.460716 55.845 -6.34706e-08 
29 1 0.250012 0.0714945 0.46075 55.845 -6.43847e-08 
81 1 0.142939 0.107145 0.376728 55.845 -4.26666e-08 
91 1 0.142856 0.0357589 0.376648 55.845 -8.00142e-08 
92 1 0.142967 0.07153 0.418602 55.845 6.27117e-08 
93 1 0.178594 0.0713668 0.37687 55.845 -6.32749e-08 
94 1 0.17857 0.107111 0.418839 55.845 5.55099e-08 
95 1 0.214288 0.107137 0.37684 55.845 -4.75175e-08 
102 1 0.142831 -3.04603e-05 0.418544 55.845 1.00743e-07 
103 1 0.178536 -6.01113e-05 0.376547 55.845 -6.00338e-08 
104 1 0.178541 0.0355514 0.41878 55.845 7.23444e-08 
105 1 0.214302 0.0356784 0.376796 55.845 -5.6027e-09 
106 1 0.21428 0.0713647 0.418699 55.845 6.76855e-08 
107 1 0.249918 0.0714353 0.376678 55.845 4.50509e-08 
108 1 0.25 0.107109 0.418774 55.845 6.02958e-08 
118 1 0.21426 -9.65417e-05 0.418775 55.845 1.16468e-07 
120 1 0.250078 0.0357061 0.418639 55.845 1.05799e-07 
183 1 0.142976 0.107211 0.291859 55.845 7.67098e-08 
193 1 0.142894 0.0357165 0.291574 55.845 7.82698e-09 
194 1 0.142828 0.0714749 0.334489 55.845 -1.53864e-07 
195 1 0.178607 0.0713617 0.29181 55.845 1.04642e-07 
196 1 0.178573 0.107139 0.334712 55.845 -9.35807e-08 
197 1 0.214316 0.107087 0.291947 55.845 1.51096e-07 
204 1 0.142865 -3.74021e-05 0.33475 55.845 -4.36413e-08 
205 1 0.178503 -0.000146827 0.291636 55.845 4.54261e-08 
206 1 0.17853 0.0356871 0.334622 55.845 -8.87057e-08 
207 1 0.214256 0.0356474 0.291825 55.845 1.38841e-07 
208 1 0.214308 0.0714334 0.334618 55.845 -3.08786e-08 
209 1 0.250095 0.0714575 0.291849 55.845 2.20014e-07 
210 1 0.250015 0.10711 0.334696 55.845 -1.16474e-07 
220 1 0.214259 8.36089e-06 0.33454 55.845 -2.78015e-08 
222 1 0.249993 0.0356997 0.334732 55.845 4.562e-10 
296 1 0.14283 0.0714269 0.249949 55.845 -1.04399e-07 
298 1 0.178618 0.107147 0.250273 55.845 -4.43418e-08 
306 1 0.142869 -4.70937e-05 0.250044 55.845 -5.57552e-08 
308 1 0.178598 0.0356988 0.250126 55.845 -6.47222e-08 
310 1 0.214356 0.0714382 0.250139 55.845 3.7947e-09 
312 1 0.250025 0.107151 0.250072 55.845 -7.90746e-08 
322 1 0.214328 -0.000117644 0.250013 55.845 -5.41507e-08 
324 1 0.249975 0.0357265 0.25017 55.845 4.16316e-09 
30 1 0.285711 0.107068 0.460853 55.845 -2.38706e-08 
35 1 0.250063 -3.72165e-05 0.460791 55.845 -6.50618e-08 
36 1 0.285715 0.0356935 0.460801 55.845 -6.40259e-08 
37 1 0.321412 0.0714583 0.460769 55.845 -2.67103e-08 
38 1 0.357087 0.10713 0.460888 55.845 -4.69975e-08 
42 1 0.321489 6.85649e-05 0.460892 55.845 -4.96076e-08 
43 1 0.357185 0.0357336 0.460752 55.845 2.4328e-08 
109 1 0.285701 0.107138 0.376844 55.845 7.41029e-09 
119 1 0.250016 3.19478e-05 0.376661 55.845 -2.09491e-08 
121 1 0.285688 0.0357038 0.376715 55.845 4.57464e-08 
122 1 0.285735 0.0714518 0.418547 55.845 7.95777e-08 
123 1 0.321523 0.0715174 0.376772 55.845 3.65382e-08 
124 1 0.321518 0.107187 0.418741 55.845 5.83686e-08 
125 1 0.357216 0.107206 0.376874 55.845 -9.50978e-09 
133 1 0.321501 -1.84374e-05 0.376718 55.845 -4.76467e-08 
134 1 0.321434 0.0357883 0.41867 55.845 5.75582e-08 
135 1 0.3572 0.0357123 0.376766 55.845 -1.70476e-09 
136 1 0.357168 0.0714408 0.418778 55.845 7.04859e-08 
211 1 0.285695 0.107067 0.291762 55.845 1.4073e-07 
221 1 0.250013 -1.30168e-05 0.291754 55.845 8.09086e-08 
223 1 0.285724 0.0356843 0.291869 55.845 1.52019e-07 
224 1 0.285737 0.0713964 0.334744 55.845 -5.11601e-08 
225 1 0.321524 0.0713578 0.291746 55.845 1.49315e-07 
226 1 0.321499 0.107075 0.334701 55.845 -9.64671e-08 
227 1 0.357179 0.107131 0.291944 55.845 1.60716e-07 
235 1 0.321417 2.24091e-06 0.291917 55.845 8.01249e-08 
236 1 0.321462 0.0357741 0.334659 55.845 -1.20569e-07 
237 1 0.357275 0.0357707 0.291828 55.845 6.78571e-08 
238 1 0.357161 0.0714482 0.334671 55.845 -1.49846e-07 
326 1 0.285705 0.0713515 0.250108 55.845 -4.71579e-08 
328 1 0.321416 0.107131 0.250175 55.845 -9.19537e-08 
338 1 0.321481 0.0356571 0.250165 55.845 -9.76121e-08 
340 1 0.357206 0.0714616 0.250104 55.845 -1.51781e-07 
44 1 0.3929 0.0714374 0.460863 55.845 3.15349e-08 
45 1 0.428611 0.107073 0.460885 55.845 -5.7478e-08 
47 1 0.392864 -3.29724e-05 0.460864 55.845 -3.6951e-08 
48 1 0.428564 0.0357003 0.46089 55.845 -5.19649e-09 
49 1 0.464261 0.0714147 0.460911 55.845 -7.39115e-08 
50 1 0.464252 -5.76025e-05 0.46062 55.845 -3.64602e-08 
137 1 0.392942 0.071484 0.376738 55.845 -3.23475e-08 
138 1 0.392886 0.107191 0.418872 55.845 8.79286e-08 
139 1 0.428514 0.107157 0.376802 55.845 -7.39942e-08 
144 1 0.392782 1.58528e-05 0.376531 55.845 4.74502e-08 
145 1 0.392849 0.0357669 0.418681 55.845 8.08408e-08 
146 1 0.428669 0.0357151 0.376767 55.845 1.81828e-08 
147 1 0.428586 0.071413 0.418738 55.845 7.37414e-08 
148 1 0.464337 0.071511 0.376816 55.845 -4.02114e-08 
149 1 0.464232 0.107177 0.418834 55.845 5.79872e-08 
150 1 0.428502 -2.63639e-05 0.418707 55.845 8.03357e-08 
151 1 0.464365 -2.28402e-05 0.376701 55.845 4.52849e-08 
152 1 0.464315 0.0357975 0.418697 55.845 6.36386e-08 
239 1 0.392961 0.0714213 0.291715 55.845 2.88952e-08 
240 1 0.392843 0.107192 0.33469 55.845 -7.86984e-08 
241 1 0.428615 0.10718 0.291929 55.845 6.18099e-08 
246 1 0.392855 -6.43542e-09 0.291841 55.845 1.60474e-07 
247 1 0.392902 0.0357674 0.334759 55.845 -1.67012e-07 
248 1 0.428616 0.0357111 0.291829 55.845 1.00447e-07 
249 1 0.428679 0.0714659 0.334792 55.845 -1.76878e-07 
250 1 0.464345 0.0714876 0.291914 55.845 1.11598e-07 
251 1 0.464275 0.107245 0.334926 55.845 -9.458e-08 
252 1 0.428654 -2.505e-05 0.334677 55.845 -5.0141e-08 
253 1 0.464354 5.51967e-05 0.291795 55.845 1.6532e-07 
254 1 0.464281 0.0356629 0.334763 55.845 -1.04408e-07 
342 1 0.392929 0.10706 0.250244 55.845 -7.35746e-08 
349 1 0.392856 0.0357579 0.250007 55.845 -1.63866e-07 
351 1 0.42863 0.0714627 0.250249 55.845 -1.48425e-07 
353 1 0.464414 0.107171 0.250195 55.845 -4.72538e-08 
354 1 0.428578 -3.43064e-06 0.250075 55.845 -5.98251e-08 
356 1 0.464315 0.0357591 0.250001 55.845 -9.57655e-08 
1 1 8.67394e-05 0.178491 0.460821 55.845 1.68004e-08 
2 1 0.0356911 0.214281 0.460939 55.845 -8.59764e-08 
4 1 0.0357727 0.142826 0.460711 55.845 -1.83588e-08 
5 1 0.0714607 0.178508 0.4608 55.845 -6.8365e-08 
6 1 0.107208 0.21421 0.460856 55.845 -9.10161e-08 
10 1 0.107137 0.142812 0.460909 55.845 -6.29546e-08 
51 1 3.60241e-05 0.178577 0.376783 55.845 -1.05501e-07 
52 1 3.25943e-05 0.214348 0.418737 55.845 1.00814e-07 
53 1 0.0357176 0.214305 0.376692 55.845 -8.27173e-08 
54 1 0.0357818 0.249947 0.418753 55.845 4.35934e-08 
56 1 -1.14572e-05 0.142814 0.418689 55.845 1.31152e-07 
57 1 0.0356731 0.142905 0.376815 55.845 -5.46835e-08 
58 1 0.0357844 0.178594 0.418757 55.845 1.09049e-07 
59 1 0.0714834 0.178503 0.376774 55.845 -6.52136e-09 
60 1 0.0714756 0.214216 0.418698 55.845 4.75089e-08 
61 1 0.107181 0.214299 0.37681 55.845 1.43916e-08 
62 1 0.10714 0.249992 0.418736 55.845 7.20423e-08 
68 1 0.0714891 0.142783 0.418749 55.845 9.9014e-08 
69 1 0.10718 0.14283 0.376693 55.845 2.62094e-08 
70 1 0.107187 0.17862 0.418724 55.845 8.74917e-08 
153 1 2.11653e-05 0.178588 0.291871 55.845 -6.27901e-08 
154 1 5.25733e-06 0.214238 0.334816 55.845 -1.22969e-07 
155 1 0.0356364 0.214354 0.291943 55.845 6.82785e-08 
156 1 0.0357527 0.250065 0.334824 55.845 -5.1291e-08 
158 1 -2.24486e-05 0.142801 0.334799 55.845 -9.38617e-08 
159 1 0.0357288 0.142761 0.291769 55.845 4.83137e-09 
160 1 0.0357708 0.178463 0.334796 55.845 -1.35744e-07 
161 1 0.0714718 0.178502 0.291958 55.845 1.10959e-07 
162 1 0.0714335 0.214237 0.33466 55.845 -4.56754e-08 
163 1 0.107166 0.21431 0.291791 55.845 1.57507e-07 
164 1 0.107193 0.25 0.334758 55.845 -1.07147e-07 
170 1 0.071442 0.142767 0.334756 55.845 -7.42621e-08 
171 1 0.107151 0.142885 0.291803 55.845 1.40401e-07 
172 1 0.107217 0.178563 0.334716 55.845 7.8372e-09 
256 1 4.25502e-05 0.214318 0.250133 55.845 -1.63359e-07 
258 1 0.0357898 0.250061 0.250131 55.845 -3.08322e-08 
260 1 4.95799e-06 0.142815 0.250153 55.845 -1.00386e-07 
262 1 0.035764 0.178545 0.250287 55.845 -1.29451e-07 
264 1 0.0714035 0.214271 0.250047 55.845 -2.53092e-08 
266 1 0.10718 0.250059 0.250098 55.845 -7.84507e-08 
272 1 0.0714199 0.142864 0.250151 55.845 -5.8698e-08 
274 1 0.107204 0.178536 0.250113 55.845 2.57616e-08 
11 1 0.142929 0.178487 0.460824 55.845 -7.21349e-08 
12 1 0.178715 0.214328 0.460826 55.845 -2.41304e-08 
17 1 0.178731 0.142847 0.460875 55.845 -4.51087e-08 
18 1 0.214305 0.178608 0.460859 55.845 -1.1748e-08 
19 1 0.250014 0.214155 0.460843 55.845 -5.13704e-08 
24 1 0.25002 0.14281 0.460753 55.845 -9.47186e-09 
71 1 0.142847 0.178605 0.376739 55.845 4.00234e-08 
72 1 0.142965 0.214224 0.41884 55.845 9.52297e-08 
73 1 0.178584 0.214256 0.376648 55.845 -6.57051e-09 
82 1 0.142787 0.142836 0.418732 55.845 6.57e-08 
83 1 0.178604 0.142857 0.376831 55.845 -3.23997e-08 
84 1 0.178629 0.178556 0.418556 55.845 9.07444e-08 
85 1 0.214382 0.178542 0.376706 55.845 -3.49659e-08 
86 1 0.214324 0.214213 0.41869 55.845 8.7135e-08 
87 1 0.249991 0.214248 0.376737 55.845 4.14666e-08 
96 1 0.214342 0.142924 0.418659 55.845 5.53582e-08 
97 1 0.249932 0.142888 0.376681 55.845 -6.94571e-08 
98 1 0.250119 0.178506 0.418733 55.845 5.75457e-08 
173 1 0.142945 0.178525 0.291875 55.845 1.86001e-07 
174 1 0.142844 0.214223 0.334821 55.845 -6.52916e-08 
175 1 0.178513 0.214359 0.291894 55.845 8.26036e-08 
184 1 0.142802 0.142924 0.334571 55.845 -3.00513e-08 
185 1 0.178633 0.142802 0.291811 55.845 1.41271e-07 
186 1 0.178701 0.178518 0.334493 55.845 -8.62106e-08 
187 1 0.214354 0.17853 0.291802 55.845 6.77583e-08 
188 1 0.214317 0.214257 0.334759 55.845 -1.1096e-07 
189 1 0.249957 0.214323 0.291934 55.845 1.63095e-07 
198 1 0.214349 0.142817 0.334687 55.845 -1.53752e-07 
199 1 0.25008 0.142911 0.291817 55.845 5.73199e-08 
200 1 0.250087 0.178558 0.334685 55.845 -1.73778e-07 
276 1 0.142824 0.214223 0.250131 55.845 -8.13025e-08 
286 1 0.14283 0.142824 0.249993 55.845 -1.03984e-08 
288 1 0.178547 0.178533 0.250083 55.845 -9.15611e-08 
290 1 0.214238 0.214326 0.250091 55.845 -1.37618e-07 
300 1 0.214347 0.142868 0.25011 55.845 -1.44893e-07 
302 1 0.249979 0.178616 0.25002 55.845 -1.7178e-07 
25 1 0.28576 0.17857 0.46106 55.845 -5.01729e-08 
26 1 0.321467 0.214316 0.461009 55.845 -7.22247e-08 
31 1 0.321451 0.142818 0.46096 55.845 -7.78061e-08 
32 1 0.357193 0.17859 0.460808 55.845 -1.19513e-07 
99 1 0.285784 0.178514 0.37667 55.845 -3.54744e-08 
100 1 0.285766 0.21421 0.418735 55.845 6.26331e-08 
101 1 0.321503 0.214205 0.376686 55.845 -2.27135e-08 
110 1 0.28577 0.142828 0.41879 55.845 4.0911e-08 
111 1 0.321441 0.142825 0.376809 55.845 -3.04141e-08 
112 1 0.321451 0.178538 0.418797 55.845 4.53027e-08 
113 1 0.357134 0.178506 0.376815 55.845 -4.97142e-08 
114 1 0.357172 0.214301 0.418843 55.845 1.0327e-07 
126 1 0.357099 0.142932 0.418746 55.845 6.29914e-08 
201 1 0.285783 0.178577 0.29175 55.845 9.18412e-08 
202 1 0.285751 0.21426 0.334751 55.845 -5.0534e-08 
203 1 0.32148 0.214278 0.291592 55.845 1.33556e-07 
212 1 0.285655 0.142706 0.334831 55.845 -1.66985e-07 
213 1 0.321393 0.142885 0.291828 55.845 1.50732e-07 
214 1 0.321486 0.178476 0.334618 55.845 -7.27334e-08 
215 1 0.35717 0.178518 0.291784 55.845 1.53061e-07 