ITEM: TIMESTEP
4200
ITEM: NUMBER OF ATOMS
5880
ITEM: BOX BOUNDS pp pp ff
-27.9369 27.9369
-27.9369 27.9369
0 34.092
ITEM: ATOMS id type xs ys zs mass q 
259 1 1.0905e-06 0.107185 0.210349 55.845 2.73508e-07 
267 1 -5.04674e-05 0.035668 0.210273 55.845 1.48355e-07 
269 1 0.0357458 0.0714583 0.210398 55.845 6.23823e-08 
271 1 0.0714039 0.107183 0.210448 55.845 5.21193e-08 
279 1 0.0357785 -7.95152e-05 0.210385 55.845 1.17272e-07 
281 1 0.0714725 0.0356617 0.210411 55.845 -7.92902e-09 
283 1 0.107081 0.0714206 0.210294 55.845 1.33242e-07 
293 1 0.107217 3.5178e-06 0.210521 55.845 4.3207e-07 
361 1 -5.48563e-05 0.107182 0.125306 55.845 -3.39993e-07 
369 1 2.06586e-05 0.0357278 0.125482 55.845 -4.41678e-07 
370 1 5.8194e-05 0.0713923 0.167773 55.845 -3.44099e-07 
371 1 0.0357152 0.0714708 0.125438 55.845 -5.02229e-07 
372 1 0.0357293 0.107181 0.167851 55.845 -3.26876e-07 
373 1 0.0714507 0.107217 0.125489 55.845 -4.85011e-07 
380 1 2.59e-06 -4.38516e-05 0.167916 55.845 -5.04974e-07 
381 1 0.0356774 1.73747e-05 0.125577 55.845 -4.14236e-07 
382 1 0.0357276 0.0357441 0.16791 55.845 -5.2286e-07 
383 1 0.0714097 0.0356862 0.125525 55.845 -4.96467e-07 
384 1 0.0713328 0.0714307 0.167761 55.845 -6.66045e-07 
385 1 0.107154 0.0714535 0.125631 55.845 -5.4444e-07 
386 1 0.107137 0.107189 0.167951 55.845 -3.9314e-07 
394 1 0.0714003 -2.03304e-05 0.167841 55.845 -3.04552e-07 
395 1 0.107182 -6.15064e-06 0.125467 55.845 -3.99345e-07 
396 1 0.107155 0.0356921 0.167835 55.845 -2.87718e-07 
463 1 0 0.107143 0.0416667 55.845 4.22774e-07 
471 1 0 0.0357143 0.0416667 55.845 3.42233e-07 
472 1 1.70949e-05 0.0714091 0.0834927 55.845 4.77772e-07 
473 1 0.0357143 0.0714286 0.0416667 55.845 3.54985e-07 
474 1 0.0356976 0.107164 0.0834105 55.845 4.68913e-07 
475 1 0.0714286 0.107143 0.0416667 55.845 2.49902e-07 
482 1 2.71375e-05 -9.90252e-06 0.0835307 55.845 3.84258e-07 
483 1 0.0357143 0 0.0416667 55.845 3.72354e-07 
484 1 0.0356945 0.0356764 0.0834196 55.845 3.29974e-07 
485 1 0.0714286 0.0357143 0.0416667 55.845 5.31877e-07 
486 1 0.0714982 0.0714616 0.0835074 55.845 3.74347e-07 
487 1 0.107143 0.0714286 0.0416667 55.845 3.50864e-07 
488 1 0.107152 0.107198 0.0835926 55.845 1.50471e-07 
496 1 0.0714187 -2.4553e-05 0.0834976 55.845 3.31798e-07 
497 1 0.107143 0 0.0416667 55.845 3.32555e-07 
498 1 0.107132 0.0356535 0.0835716 55.845 3.74339e-07 
567 1 0 0.0714286 0 55.845 -6.27992e-07 
568 1 0.0357143 0.107143 0 55.845 -4.40013e-07 
572 1 0 0 0 55.845 -3.39025e-07 
573 1 0.0357143 0.0357143 0 55.845 -3.5595e-07 
574 1 0.0714286 0.0714286 0 55.845 -2.75968e-07 
575 1 0.107143 0.107143 0 55.845 -5.43274e-07 
579 1 0.0714286 0 0 55.845 -3.27999e-07 
580 1 0.107143 0.0357143 0 55.845 -3.81245e-08 
285 1 0.142851 0.107194 0.210446 55.845 3.19412e-07 
295 1 0.142851 0.0357315 0.210458 55.845 4.45829e-07 
297 1 0.178547 0.0714014 0.210493 55.845 2.46973e-07 
299 1 0.214271 0.10717 0.210516 55.845 2.54633e-07 
307 1 0.178549 2.60416e-05 0.210519 55.845 2.44381e-07 
309 1 0.214265 0.0356584 0.210259 55.845 1.416e-07 
311 1 0.249995 0.0714285 0.210416 55.845 2.59064e-07 
387 1 0.142836 0.107135 0.125305 55.845 -4.85835e-07 
397 1 0.142843 0.0356927 0.125534 55.845 -4.10614e-07 
398 1 0.142906 0.0714758 0.167902 55.845 -3.13383e-07 
399 1 0.178486 0.0714627 0.125366 55.845 -4.79791e-07 
400 1 0.178626 0.107095 0.167861 55.845 -2.23951e-07 
401 1 0.214302 0.107167 0.125539 55.845 -4.00781e-07 
408 1 0.142875 1.87401e-05 0.167877 55.845 -1.93051e-07 
409 1 0.17856 -3.28374e-05 0.125528 55.845 -5.42285e-07 
410 1 0.178576 0.0357222 0.167865 55.845 -2.79477e-07 
411 1 0.214286 0.035713 0.12557 55.845 -6.15474e-07 
412 1 0.214228 0.0714893 0.167954 55.845 -3.92919e-07 
413 1 0.249964 0.0714916 0.125649 55.845 -5.46446e-07 
414 1 0.249951 0.10712 0.167889 55.845 -4.48091e-07 
424 1 0.214269 -3.96923e-05 0.167739 55.845 -3.66506e-07 
426 1 0.24999 0.0356822 0.16787 55.845 -2.96631e-07 
489 1 0.142857 0.107143 0.0416667 55.845 1.21701e-07 
499 1 0.142857 0.0357143 0.0416667 55.845 2.61613e-07 
500 1 0.142943 0.0713952 0.0834835 55.845 2.94996e-07 
501 1 0.178571 0.0714286 0.0416667 55.845 1.84612e-07 
502 1 0.17861 0.107121 0.083447 55.845 3.94519e-07 
503 1 0.214286 0.107143 0.0416667 55.845 4.03945e-07 
510 1 0.142869 8.61502e-06 0.0834849 55.845 2.72668e-07 
511 1 0.178571 0 0.0416667 55.845 2.61153e-07 
512 1 0.178572 0.0357474 0.0834961 55.845 7.62637e-08 
513 1 0.214286 0.0357143 0.0416667 55.845 1.42647e-07 
514 1 0.214283 0.0713697 0.0835444 55.845 2.26e-07 
515 1 0.25 0.0714286 0.0416667 55.845 1.99645e-07 
516 1 0.250028 0.107125 0.0833878 55.845 1.7991e-07 
526 1 0.214327 0.000130248 0.0834091 55.845 2.17343e-07 
528 1 0.249962 0.0357318 0.0835887 55.845 2.15634e-07 
581 1 0.142857 0.0714286 0 55.845 -2.91571e-07 
582 1 0.178571 0.107143 0 55.845 -2.15815e-07 
586 1 0.142857 0 0 55.845 -2.0425e-07 
587 1 0.178571 0.0357143 0 55.845 -3.69244e-07 
588 1 0.214286 0.0714286 0 55.845 -3.40806e-07 
589 1 0.25 0.107143 0 55.845 -4.21338e-07 
594 1 0.214286 0 0 55.845 -2.08229e-07 
595 1 0.25 0.0357143 0 55.845 -2.17438e-07 
313 1 0.285709 0.107165 0.210483 55.845 2.80141e-07 
323 1 0.249996 3.87946e-06 0.21028 55.845 1.0863e-07 
325 1 0.28576 0.03576 0.210351 55.845 2.45031e-07 
327 1 0.321439 0.0714322 0.210547 55.845 3.39951e-07 
329 1 0.357163 0.107206 0.21052 55.845 3.41299e-07 
337 1 0.321436 -3.50345e-05 0.210355 55.845 1.14065e-07 
339 1 0.357112 0.0357667 0.210585 55.845 6.24405e-08 
415 1 0.285729 0.107127 0.125525 55.845 -5.69309e-07 
425 1 0.250043 -4.04162e-05 0.125424 55.845 -4.77006e-07 
427 1 0.285727 0.0357508 0.125521 55.845 -4.21542e-07 
428 1 0.285679 0.0714444 0.167832 55.845 -2.92058e-07 
429 1 0.321435 0.0714277 0.125592 55.845 -4.178e-07 
430 1 0.321453 0.107167 0.167923 55.845 -3.11082e-07 
431 1 0.357165 0.107145 0.125435 55.845 -2.6067e-07 
439 1 0.321362 2.84566e-05 0.125487 55.845 -4.70136e-07 
440 1 0.321401 0.0356792 0.167875 55.845 -3.69879e-07 
441 1 0.357115 0.0356958 0.125579 55.845 -6.10751e-07 
442 1 0.35712 0.071378 0.167938 55.845 -3.08353e-07 
517 1 0.285714 0.107143 0.0416667 55.845 1.6551e-07 
527 1 0.25 0 0.0416667 55.845 5.12629e-07 
529 1 0.285714 0.0357143 0.0416667 55.845 3.66755e-07 
530 1 0.285693 0.071405 0.0836057 55.845 3.14842e-07 
531 1 0.321429 0.0714286 0.0416667 55.845 1.60568e-07 
532 1 0.321454 0.107158 0.0836184 55.845 3.98756e-07 
533 1 0.357143 0.107143 0.0416667 55.845 2.38076e-07 
603 1 0.357143 0.0714286 0 55.845 -6.55863e-07 
541 1 0.321429 0 0.0416667 55.845 3.09466e-07 
542 1 0.321425 0.035738 0.0835401 55.845 2.36262e-07 
543 1 0.357143 0.0357143 0.0416667 55.845 4.47067e-08 
544 1 0.357117 0.0713562 0.0835632 55.845 3.45413e-07 
602 1 0.321429 0.0357143 0 55.845 -4.44253e-07 
596 1 0.285714 0.0714286 0 55.845 -3.46829e-07 
597 1 0.321429 0.107143 0 55.845 -3.22338e-07 
612 1 0.464286 0.0357143 0 55.845 -3.38458e-07 
611 1 0.428571 0 0 55.845 -3.16095e-07 
610 1 0.464286 0.107143 0 55.845 -2.32275e-07 
609 1 0.428571 0.0714286 0 55.845 -4.82619e-07 
608 1 0.392857 0.0357143 0 55.845 -5.74774e-07 
341 1 0.392915 0.0713736 0.210548 55.845 7.2922e-08 
343 1 0.428586 0.107085 0.210462 55.845 1.42075e-07 
348 1 0.392782 1.13967e-05 0.210498 55.845 9.16516e-08 
350 1 0.428562 0.0357049 0.210456 55.845 -1.09926e-07 
352 1 0.464253 0.0714403 0.210468 55.845 -5.28374e-08 
355 1 0.46425 6.49398e-05 0.210486 55.845 5.63337e-08 
443 1 0.392909 0.0713394 0.125654 55.845 -3.09694e-07 
444 1 0.392904 0.107115 0.167966 55.845 -1.44052e-07 
445 1 0.428516 0.107097 0.125527 55.845 -3.4272e-07 
604 1 0.392857 0.107143 0 55.845 -5.4256e-07 
450 1 0.392774 8.18166e-05 0.125594 55.845 -4.82506e-07 
451 1 0.392798 0.0356883 0.167873 55.845 -5.08907e-07 
452 1 0.428619 0.0356815 0.125518 55.845 -3.52286e-07 
453 1 0.428515 0.0714058 0.167928 55.845 -3.86972e-07 
454 1 0.464286 0.0714059 0.125574 55.845 -4.24963e-07 
455 1 0.464346 0.107148 0.16778 55.845 -4.50272e-07 
456 1 0.428542 3.39527e-05 0.167767 55.845 -4.82913e-07 
457 1 0.464267 5.76466e-05 0.125491 55.845 -4.97204e-07 
458 1 0.464228 0.0357149 0.168067 55.845 -4.92084e-07 
545 1 0.392857 0.0714286 0.0416667 55.845 1.49537e-07 
546 1 0.392817 0.107097 0.0836164 55.845 4.12593e-07 
547 1 0.428571 0.107143 0.0416667 55.845 3.35776e-07 
552 1 0.392857 0 0.0416667 55.845 2.61295e-07 
553 1 0.39282 0.0357392 0.0834557 55.845 3.92571e-07 
554 1 0.428571 0.0357143 0.0416667 55.845 5.04113e-07 
555 1 0.428515 0.0714028 0.0835132 55.845 4.93943e-07 
556 1 0.464286 0.0714286 0.0416667 55.845 4.17847e-07 
557 1 0.464186 0.107067 0.0834609 55.845 3.57686e-07 
558 1 0.428609 -7.51701e-05 0.0834354 55.845 4.20507e-07 
559 1 0.464286 0 0.0416667 55.845 4.50369e-07 
560 1 0.46426 0.035687 0.0835062 55.845 3.0433e-07 
255 1 2.26735e-05 0.178555 0.21033 55.845 2.45931e-08 
257 1 0.0357349 0.214274 0.210461 55.845 1.13041e-07 
261 1 0.0356333 0.142897 0.210459 55.845 1.24389e-07 
263 1 0.0714469 0.178595 0.210565 55.845 1.92808e-07 
265 1 0.107132 0.214276 0.210347 55.845 1.18259e-07 
273 1 0.107108 0.142897 0.210399 55.845 2.79696e-07 
357 1 -1.98162e-05 0.178575 0.125578 55.845 -6.77265e-07 
358 1 1.68755e-05 0.214274 0.167815 55.845 -3.21948e-07 
359 1 0.0356687 0.214314 0.125478 55.845 -5.41635e-07 
360 1 0.0356733 0.250025 0.167989 55.845 -3.69427e-07 
362 1 5.77372e-05 0.142836 0.16774 55.845 -4.39018e-07 
363 1 0.035741 0.142924 0.125564 55.845 -2.90397e-07 
364 1 0.035738 0.178677 0.167772 55.845 -3.28927e-07 
365 1 0.0714528 0.178569 0.125611 55.845 -2.96021e-07 
366 1 0.0714157 0.214393 0.167925 55.845 -3.39002e-07 
367 1 0.107083 0.214301 0.125589 55.845 -5.26535e-07 
368 1 0.107074 0.25004 0.167872 55.845 -3.71418e-07 
374 1 0.071463 0.142846 0.167957 55.845 -2.38131e-07 
375 1 0.107193 0.142852 0.125535 55.845 -4.75225e-07 
376 1 0.107114 0.178574 0.167818 55.845 -2.67466e-07 
459 1 0 0.178571 0.0416667 55.845 2.1344e-07 
460 1 -2.65276e-05 0.214296 0.0834556 55.845 7.44432e-08 
461 1 0.0357143 0.214286 0.0416667 55.845 2.32467e-07 
462 1 0.0357386 0.25003 0.0835985 55.845 1.50685e-07 
464 1 7.86678e-05 0.142846 0.0835198 55.845 4.48411e-07 
465 1 0.0357143 0.142857 0.0416667 55.845 4.33315e-07 
466 1 0.0357882 0.178553 0.083548 55.845 3.52209e-07 
467 1 0.0714286 0.178571 0.0416667 55.845 3.38003e-07 
468 1 0.0714677 0.214393 0.0835519 55.845 4.4897e-07 
469 1 0.107143 0.214286 0.0416667 55.845 3.45232e-07 
470 1 0.107122 0.250002 0.0834387 55.845 3.00585e-07 
476 1 0.0715039 0.142867 0.0834627 55.845 5.102e-07 
477 1 0.107143 0.142857 0.0416667 55.845 3.98558e-10 
478 1 0.107175 0.178602 0.0835303 55.845 3.96989e-07 
561 1 0 0.214286 0 55.845 -5.02627e-07 
562 1 0.0357143 0.25 0 55.845 -8.80994e-08 
563 1 0 0.142857 0 55.845 -1.88041e-07 
564 1 0.0357143 0.178571 0 55.845 -2.84726e-07 
565 1 0.0714286 0.214286 0 55.845 -7.36404e-08 
566 1 0.107143 0.25 0 55.845 -1.44449e-07 
569 1 0.0714286 0.142857 0 55.845 -5.63621e-07 
570 1 0.107143 0.178571 0 55.845 -3.79991e-07 
275 1 0.142873 0.178527 0.210505 55.845 1.49271e-07 
277 1 0.178612 0.214384 0.210413 55.845 -5.42974e-08 
287 1 0.17863 0.142915 0.210499 55.845 2.81607e-07 
289 1 0.214305 0.178626 0.210413 55.845 7.18045e-08 
291 1 0.250048 0.214262 0.210511 55.845 1.09736e-07 
301 1 0.249956 0.142833 0.210418 55.845 1.90404e-07 
377 1 0.142877 0.178596 0.1254 55.845 -5.70273e-07 
378 1 0.142842 0.214259 0.167864 55.845 -5.11521e-07 
379 1 0.178516 0.214318 0.125483 55.845 -5.04399e-07 
388 1 0.142914 0.142839 0.167723 55.845 -3.12724e-07 
389 1 0.178539 0.142872 0.125465 55.845 -3.54252e-07 
390 1 0.178582 0.178632 0.167934 55.845 -4.5414e-07 
391 1 0.214317 0.178615 0.125523 55.845 -4.33519e-07 
392 1 0.214264 0.214323 0.167753 55.845 -3.91744e-07 
393 1 0.249964 0.214245 0.125632 55.845 -3.57813e-07 
402 1 0.214266 0.142967 0.167796 55.845 -3.80135e-07 
403 1 0.250056 0.142799 0.125502 55.845 -6.19602e-07 
404 1 0.250013 0.178559 0.167867 55.845 -4.7876e-07 
479 1 0.142857 0.178571 0.0416667 55.845 1.37552e-07 
480 1 0.142876 0.214296 0.0833998 55.845 3.90801e-07 
481 1 0.178571 0.214286 0.0416667 55.845 3.22994e-07 
490 1 0.142868 0.142948 0.0834817 55.845 2.72513e-07 
491 1 0.178571 0.142857 0.0416667 55.845 4.29544e-07 
492 1 0.178584 0.178586 0.0834725 55.845 4.2809e-07 
493 1 0.214286 0.178571 0.0416667 55.845 3.79016e-07 
494 1 0.214269 0.214274 0.0834446 55.845 4.69705e-07 
495 1 0.25 0.214286 0.0416667 55.845 3.82319e-07 
504 1 0.214298 0.14289 0.0835757 55.845 4.91769e-07 
505 1 0.25 0.142857 0.0416667 55.845 1.91819e-07 
506 1 0.249947 0.178453 0.0836034 55.845 3.74751e-07 
571 1 0.142857 0.214286 0 55.845 -3.0728e-07 
576 1 0.142857 0.142857 0 55.845 -5.57171e-07 
577 1 0.178571 0.178571 0 55.845 -3.3443e-07 
578 1 0.214286 0.214286 0 55.845 -4.48754e-07 
583 1 0.214286 0.142857 0 55.845 -3.06291e-07 
584 1 0.25 0.178571 0 55.845 -4.92284e-07 
303 1 0.285672 0.178535 0.210516 55.845 4.68305e-08 
305 1 0.321367 0.214259 0.210479 55.845 1.28532e-07 
315 1 0.321386 0.142802 0.210414 55.845 1.00068e-07 
317 1 0.357114 0.17865 0.21041 55.845 1.90033e-07 
405 1 0.285768 0.178637 0.125495 55.845 -5.02048e-07 
406 1 0.285773 0.214307 0.167832 55.845 -3.20661e-07 
407 1 0.321488 0.214306 0.125425 55.845 -4.1781e-07 
416 1 0.285704 0.142859 0.16785 55.845 -6.32357e-07 
417 1 0.321432 0.142838 0.125563 55.845 -5.0222e-07 
418 1 0.321451 0.17855 0.167916 55.845 -5.25135e-07 
419 1 0.357066 0.178582 0.125411 55.845 -5.68103e-07 
420 1 0.357144 0.214226 0.167863 55.845 -3.65213e-07 
432 1 0.35719 0.142872 0.167858 55.845 -3.31683e-07 
507 1 0.285714 0.178571 0.0416667 55.845 2.94174e-07 
508 1 0.285671 0.214297 0.0835601 55.845 5.54097e-07 
509 1 0.321429 0.214286 0.0416667 55.845 3.23009e-07 
518 1 0.285709 0.142829 0.0834364 55.845 2.32269e-07 
519 1 0.321429 0.142857 0.0416667 55.845 3.63998e-07 
520 1 0.321401 0.178662 0.0833896 55.845 4.38367e-07 
521 1 0.357143 0.178571 0.0416667 55.845 2.28677e-07 
522 1 0.357144 0.214319 0.083403 55.845 2.8539e-07 
534 1 0.357076 0.142876 0.0835408 55.845 4.03632e-07 
585 1 0.285714 0.214286 0 55.845 -3.38525e-07 
590 1 0.285714 0.142857 0 55.845 -4.78217e-07 
591 1 0.321429 0.178571 0 55.845 -1.85266e-07 
592 1 0.357143 0.214286 0 55.845 -3.43851e-07 
598 1 0.357143 0.142857 0 55.845 -2.40044e-07 
319 1 0.392839 0.214292 0.210376 55.845 3.33424e-07 
321 1 0.428549 0.250033 0.210216 55.845 1.89874e-07 
331 1 0.392906 0.142844 0.210302 55.845 3.60824e-07 
333 1 0.428643 0.178612 0.210601 55.845 3.4613e-07 
335 1 0.464235 0.214281 0.21035 55.845 2.73886e-07 
345 1 0.464188 0.142883 0.210374 55.845 8.48423e-08 
606 1 0.464286 0.178571 0 55.845 -7.63812e-08 
421 1 0.392846 0.214235 0.125332 55.845 -5.33282e-07 
422 1 0.392843 0.249979 0.167882 55.845 -3.29268e-07 
423 1 0.428605 0.250008 0.125547 55.845 -3.98561e-07 
433 1 0.392855 0.142855 0.12563 55.845 -4.69455e-07 
434 1 0.392858 0.178518 0.167868 55.845 -3.3077e-07 
435 1 0.428571 0.178577 0.125439 55.845 -6.41482e-07 
436 1 0.428495 0.21426 0.167759 55.845 -2.74404e-07 
437 1 0.464195 0.21428 0.125588 55.845 -3.82122e-07 
605 1 0.428571 0.142857 0 55.845 -2.0196e-07 
446 1 0.428654 0.14291 0.16797 55.845 -3.31152e-07 
447 1 0.464246 0.142836 0.125534 55.845 -6.25593e-07 
448 1 0.464314 0.178586 0.167816 55.845 -4.40377e-07 
523 1 0.392857 0.214286 0.0416667 55.845 1.52029e-07 
524 1 0.392919 0.249992 0.0836112 55.845 2.54464e-07 
525 1 0.428571 0.25 0.0416667 55.845 3.59571e-07 
535 1 0.392857 0.142857 0.0416667 55.845 1.91576e-07 
536 1 0.392796 0.17857 0.0836382 55.845 8.00725e-08 
537 1 0.428571 0.178571 0.0416667 55.845 2.90205e-07 
538 1 0.428554 0.214325 0.0834973 55.845 2.68944e-07 
539 1 0.464286 0.214286 0.0416667 55.845 4.28822e-07 
548 1 0.428551 0.142834 0.0834883 55.845 1.99285e-07 
549 1 0.464286 0.142857 0.0416667 55.845 4.27953e-07 
550 1 0.464268 0.178649 0.0835663 55.845 2.30229e-07 
593 1 0.392857 0.25 0 55.845 -4.07977e-07 
599 1 0.392857 0.178571 0 55.845 -2.2834e-07 
600 1 0.428571 0.214286 0 55.845 -1.57724e-07 
3 1 -4.84151e-05 0.107157 0.462455 55.845 -6.09516e-08 
7 1 7.79534e-06 0.0356847 0.462425 55.845 -2.26763e-07 
8 1 0.035839 0.0714527 0.462594 55.845 -1.86587e-07 
9 1 0.0714715 0.107141 0.46245 55.845 -1.94525e-07 
13 1 0.0356476 -8.05047e-05 0.462541 55.845 -2.32974e-07 
14 1 0.0713918 0.0356422 0.462354 55.845 -1.42269e-07 
15 1 0.10714 0.0714276 0.462383 55.845 -1.96382e-07 
20 1 0.107107 -3.8904e-05 0.462449 55.845 -3.01062e-08 
55 1 7.99317e-06 0.107156 0.379375 55.845 -6.69814e-08 
63 1 -5.10975e-06 0.035634 0.379376 55.845 1.47289e-07 
64 1 7.64619e-06 0.0714564 0.421553 55.845 -5.79524e-08 
65 1 0.0357106 0.0714753 0.379516 55.845 6.53558e-08 
66 1 0.0356999 0.107127 0.421414 55.845 -1.38686e-07 
67 1 0.0714368 0.107285 0.379365 55.845 -1.21387e-07 
74 1 -2.04786e-06 2.34799e-05 0.421388 55.845 -3.52301e-08 
75 1 0.0357517 -2.12367e-05 0.379393 55.845 -4.13268e-08 
76 1 0.0357043 0.0357202 0.421452 55.845 -1.22999e-07 
77 1 0.0714002 0.0356984 0.379332 55.845 -3.36213e-08 
78 1 0.071487 0.0713958 0.421288 55.845 -1.3717e-07 
79 1 0.107159 0.0713192 0.379256 55.845 5.72519e-09 
80 1 0.10712 0.107127 0.421278 55.845 -7.58615e-08 
88 1 0.0714532 -3.9901e-05 0.421363 55.845 -8.79846e-08 
89 1 0.107111 -5.35655e-06 0.379361 55.845 -4.55809e-08 
90 1 0.107001 0.0356421 0.421416 55.845 3.44164e-08 
157 1 5.49018e-05 0.107123 0.294068 55.845 2.97384e-07 
165 1 6.17517e-06 0.0356599 0.293879 55.845 3.73544e-07 
166 1 6.03801e-05 0.0714029 0.336387 55.845 1.06182e-07 
167 1 0.0357738 0.0714036 0.293703 55.845 3.13575e-07 
168 1 0.0357076 0.107106 0.336376 55.845 -6.72235e-08 
169 1 0.0713986 0.107109 0.293848 55.845 1.05509e-07 
176 1 6.18435e-05 2.55237e-05 0.336335 55.845 -6.39315e-09 
177 1 0.0357247 -3.43283e-05 0.293789 55.845 2.38194e-08 
178 1 0.0356667 0.0357193 0.336303 55.845 -3.30288e-08 
179 1 0.0713686 0.0356729 0.293807 55.845 1.24855e-08 
180 1 0.0714616 0.07142 0.336364 55.845 -5.0771e-08 
181 1 0.107112 0.071397 0.293755 55.845 6.83837e-08 
182 1 0.107194 0.107202 0.336347 55.845 -9.12832e-08 
190 1 0.0714575 -2.88439e-05 0.336357 55.845 -2.46301e-07 
191 1 0.107184 8.6455e-06 0.293928 55.845 1.15815e-07 
192 1 0.107151 0.0356952 0.336242 55.845 -9.75792e-08 
268 1 -1.77457e-05 0.0714721 0.252236 55.845 6.19272e-07 
270 1 0.0357254 0.107136 0.252246 55.845 4.10465e-07 
278 1 -4.9424e-05 -3.6401e-06 0.252276 55.845 3.03183e-07 
280 1 0.0357006 0.0357011 0.252202 55.845 3.43209e-07 
282 1 0.0714769 0.0714279 0.25213 55.845 2.14891e-07 
284 1 0.107071 0.107181 0.252324 55.845 3.23363e-07 
292 1 0.0714699 -7.82558e-05 0.252241 55.845 3.17505e-07 
294 1 0.107149 0.0357371 0.252276 55.845 3.60887e-07 
16 1 0.142914 0.107122 0.462248 55.845 -2.26481e-07 
21 1 0.142794 0.0357595 0.462354 55.845 -1.15773e-07 
22 1 0.178641 0.0714416 0.462408 55.845 -2.28874e-07 
23 1 0.214301 0.107147 0.462303 55.845 -5.15499e-08 
27 1 0.17856 2.97432e-05 0.462196 55.845 -1.50465e-07 
28 1 0.214252 0.0357227 0.462352 55.845 -1.59646e-07 
29 1 0.249997 0.0713748 0.462483 55.845 -9.61654e-08 
81 1 0.142931 0.10709 0.379416 55.845 -1.31674e-07 
91 1 0.142867 0.0356906 0.379369 55.845 1.02982e-07 
92 1 0.142828 0.0714139 0.421354 55.845 -5.92249e-08 
93 1 0.178534 0.0714283 0.379487 55.845 4.68229e-08 
94 1 0.178571 0.107184 0.421494 55.845 7.22157e-08 
95 1 0.214345 0.107131 0.379473 55.845 5.17313e-08 
102 1 0.142816 -2.50366e-06 0.421397 55.845 1.27037e-07 
103 1 0.178585 1.4811e-05 0.379342 55.845 1.90427e-07 
104 1 0.178412 0.0357237 0.421292 55.845 1.65744e-07 
105 1 0.214276 0.0357338 0.379458 55.845 2.3105e-07 
106 1 0.214229 0.0714035 0.421439 55.845 1.33299e-07 
107 1 0.249946 0.0713937 0.379318 55.845 1.10825e-07 
108 1 0.250035 0.107127 0.421329 55.845 4.65508e-08 
118 1 0.214276 -1.69515e-06 0.421421 55.845 9.2678e-08 
120 1 0.249948 0.0357887 0.421401 55.845 1.57575e-07 
183 1 0.142838 0.10721 0.29395 55.845 2.13671e-08 
193 1 0.142848 0.0357164 0.293852 55.845 1.19958e-07 
194 1 0.14284 0.0714202 0.336301 55.845 -9.67498e-08 
195 1 0.178508 0.0713691 0.293855 55.845 -1.30152e-07 
196 1 0.178696 0.107102 0.336477 55.845 -1.98706e-07 
197 1 0.214365 0.107158 0.293947 55.845 6.69551e-08 
204 1 0.142877 -2.37784e-05 0.336319 55.845 8.58988e-08 
205 1 0.178566 1.35813e-06 0.293898 55.845 8.58773e-08 
206 1 0.178609 0.0356427 0.336312 55.845 -3.95678e-08 
207 1 0.214253 0.0356532 0.293911 55.845 -6.42338e-08 
208 1 0.214191 0.0713643 0.336348 55.845 -1.23283e-07 
209 1 0.249956 0.0713728 0.293972 55.845 3.22733e-08 
210 1 0.250092 0.107121 0.336294 55.845 2.28057e-08 
220 1 0.214319 -9.87194e-05 0.33633 55.845 -7.18541e-08 
222 1 0.24999 0.035607 0.336367 55.845 -1.78735e-07 
296 1 0.142807 0.0714502 0.252261 55.845 3.17227e-07 
298 1 0.178562 0.107149 0.252261 55.845 2.76555e-07 
306 1 0.142832 -3.99513e-05 0.252394 55.845 5.32802e-07 
308 1 0.178528 0.0356608 0.252377 55.845 3.13748e-07 
310 1 0.214294 0.0713772 0.252268 55.845 2.15479e-07 
312 1 0.250002 0.107167 0.252291 55.845 4.63704e-07 
322 1 0.214287 -3.14387e-05 0.252182 55.845 2.30552e-07 
324 1 0.249988 0.0356853 0.25235 55.845 2.7524e-07 
30 1 0.285673 0.107151 0.462589 55.845 -1.26551e-07 
35 1 0.249994 5.78051e-05 0.462479 55.845 -1.47648e-07 
36 1 0.285648 0.03576 0.462487 55.845 -6.39566e-08 
37 1 0.321314 0.071456 0.462421 55.845 1.18858e-08 
38 1 0.35718 0.107159 0.462421 55.845 -4.88468e-08 
42 1 0.321415 5.30908e-05 0.462368 55.845 -1.36875e-07 
43 1 0.357111 0.0357923 0.46247 55.845 -1.33027e-07 
109 1 0.285764 0.107215 0.379459 55.845 -1.69664e-10 
119 1 0.249962 3.10104e-05 0.379433 55.845 8.54703e-08 
121 1 0.285682 0.0357437 0.379396 55.845 -2.6843e-08 
122 1 0.285633 0.0715197 0.421476 55.845 7.58465e-08 
123 1 0.321396 0.0714515 0.379344 55.845 4.1753e-08 
124 1 0.321428 0.107259 0.421539 55.845 1.70293e-07 
125 1 0.357111 0.107174 0.379539 55.845 4.68702e-08 
133 1 0.321358 -2.80789e-05 0.379377 55.845 -1.43831e-07 
134 1 0.321345 0.0357328 0.421355 55.845 2.35614e-08 
135 1 0.357105 0.0357619 0.3794 55.845 1.56579e-08 
136 1 0.357031 0.0714386 0.421481 55.845 7.00604e-08 
211 1 0.285688 0.107189 0.293913 55.845 1.81557e-07 
221 1 0.24993 -4.59491e-06 0.293706 55.845 -6.31514e-08 
223 1 0.285676 0.035751 0.29388 55.845 -5.81734e-08 
224 1 0.285645 0.0714733 0.336371 55.845 -1.08381e-07 
225 1 0.321409 0.0714736 0.293817 55.845 1.019e-07 
226 1 0.321361 0.107172 0.336488 55.845 1.96008e-08 
227 1 0.357114 0.107238 0.29383 55.845 9.37219e-08 
235 1 0.321344 3.82366e-05 0.293921 55.845 -4.349e-08 
236 1 0.321386 0.0357532 0.336393 55.845 -9.24288e-08 
237 1 0.357115 0.0356717 0.293878 55.845 1.71905e-07 
238 1 0.357117 0.0714381 0.336279 55.845 3.63831e-08 
326 1 0.285662 0.0714363 0.252295 55.845 4.02614e-07 
328 1 0.32141 0.107112 0.252288 55.845 3.38295e-07 
338 1 0.321357 0.0357063 0.252353 55.845 3.22014e-07 
340 1 0.357186 0.0714446 0.252278 55.845 3.25017e-07 
44 1 0.39272 0.0714439 0.462454 55.845 -1.34214e-07 
45 1 0.428432 0.107257 0.462392 55.845 -1.65565e-07 
47 1 0.392754 2.7269e-07 0.462327 55.845 -2.64095e-07 
48 1 0.428556 0.0357459 0.462414 55.845 -1.62451e-07 
49 1 0.464262 0.0715149 0.46238 55.845 -1.6276e-07 
50 1 0.464234 -4.94462e-05 0.462334 55.845 -9.211e-08 
137 1 0.392834 0.0714434 0.379398 55.845 6.21384e-09 
138 1 0.392884 0.107164 0.42135 55.845 -1.76346e-08 
139 1 0.428522 0.107183 0.379315 55.845 1.61367e-07 
144 1 0.392825 -5.62528e-05 0.37951 55.845 -6.78348e-08 
145 1 0.392804 0.0357453 0.421411 55.845 -2.93815e-08 
146 1 0.428555 0.0357515 0.379571 55.845 -9.09923e-08 
147 1 0.428509 0.0714579 0.421503 55.845 -5.32129e-08 
148 1 0.464231 0.071461 0.3795 55.845 -2.97729e-08 
149 1 0.46425 0.107198 0.421295 55.845 1.46227e-07 
150 1 0.428604 1.76148e-05 0.421426 55.845 -1.63436e-08 
151 1 0.464305 -2.19438e-06 0.379455 55.845 -7.78052e-08 
152 1 0.46429 0.0357696 0.421471 55.845 -6.08632e-08 
239 1 0.392818 0.0714069 0.293991 55.845 2.09952e-08 
240 1 0.392798 0.107111 0.336366 55.845 -4.3869e-08 
241 1 0.428462 0.107112 0.293853 55.845 4.32783e-08 
246 1 0.392854 -3.25015e-05 0.293904 55.845 2.18359e-07 
247 1 0.392797 0.0356772 0.336482 55.845 8.59362e-08 
248 1 0.428458 0.0356391 0.294084 55.845 -1.99742e-08 
249 1 0.428546 0.0713563 0.336406 55.845 -2.29921e-07 
250 1 0.464295 0.0714175 0.293979 55.845 -1.60663e-07 
251 1 0.464156 0.107165 0.336335 55.845 -7.16279e-09 
252 1 0.428532 -1.37287e-05 0.336538 55.845 8.36982e-08 
253 1 0.464231 -7.78207e-08 0.29403 55.845 3.53607e-08 
254 1 0.464299 0.0356962 0.336463 55.845 -2.35363e-07 
342 1 0.392846 0.107019 0.252398 55.845 3.39657e-07 
349 1 0.392849 0.035661 0.252307 55.845 2.55434e-07 
351 1 0.428589 0.0713123 0.252537 55.845 6.97707e-08 
353 1 0.464175 0.107122 0.252372 55.845 1.65898e-07 
354 1 0.42859 -6.19684e-06 0.252414 55.845 4.18284e-07 
356 1 0.46427 0.0356882 0.252387 55.845 2.46346e-07 
1 1 2.13253e-05 0.178551 0.462485 55.845 -9.7097e-08 
2 1 0.0358127 0.214269 0.462642 55.845 -6.13706e-08 
4 1 0.0357087 0.142793 0.462565 55.845 -1.45102e-07 
5 1 0.0714633 0.178648 0.462567 55.845 -1.03157e-07 
6 1 0.107055 0.214262 0.462401 55.845 -2.17647e-07 
10 1 0.107192 0.142845 0.462478 55.845 -1.88692e-07 
51 1 0.000105802 0.178561 0.37943 55.845 2.6505e-08 
52 1 -5.20245e-06 0.214239 0.421462 55.845 1.34686e-07 
53 1 0.0356772 0.214313 0.379446 55.845 1.90195e-07 
54 1 0.0356459 0.249951 0.421451 55.845 1.61269e-07 
56 1 3.25229e-05 0.142882 0.42148 55.845 -7.48304e-08 
57 1 0.0357274 0.142926 0.379356 55.845 -1.40768e-07 
58 1 0.0358014 0.178553 0.42152 55.845 5.89055e-08 
59 1 0.0713341 0.17856 0.379284 55.845 -5.54196e-08 
60 1 0.0714598 0.214294 0.421284 55.845 1.16743e-07 
61 1 0.107206 0.21434 0.379381 55.845 -8.58531e-08 
62 1 0.107039 0.25001 0.421347 55.845 -1.07276e-08 
68 1 0.071385 0.14298 0.42152 55.845 -1.00017e-07 
69 1 0.107103 0.142884 0.3795 55.845 -1.91824e-07 
70 1 0.107091 0.178621 0.421458 55.845 -5.43244e-08 
153 1 -2.41946e-05 0.178566 0.29399 55.845 -6.45394e-08 
154 1 3.04971e-05 0.214276 0.336397 55.845 -1.38337e-07 
155 1 0.0357035 0.214301 0.293888 55.845 5.89782e-09 
156 1 0.0357356 0.24996 0.336326 55.845 3.90684e-08 
158 1 -4.91504e-06 0.142837 0.336287 55.845 -9.58657e-08 
159 1 0.0356793 0.14287 0.293997 55.845 1.28059e-08 
160 1 0.0356601 0.178619 0.336264 55.845 -1.10191e-07 
161 1 0.0714125 0.178581 0.293983 55.845 -3.83553e-08 
162 1 0.0714147 0.214279 0.336283 55.845 8.48966e-08 
163 1 0.107138 0.214294 0.293802 55.845 6.0443e-08 
164 1 0.107162 0.250008 0.336361 55.845 7.85731e-08 
170 1 0.0714323 0.142911 0.336273 55.845 -1.66398e-07 
171 1 0.10715 0.142891 0.293985 55.845 6.63873e-08 
172 1 0.107162 0.178679 0.336405 55.845 -6.07022e-08 
256 1 2.90431e-05 0.214226 0.252195 55.845 2.67923e-07 
258 1 0.0356036 0.250017 0.25232 55.845 3.23042e-07 
260 1 -1.72284e-05 0.142844 0.25229 55.845 3.84088e-07 
262 1 0.0356411 0.178549 0.252202 55.845 2.32941e-07 
264 1 0.0714705 0.214311 0.252188 55.845 3.14161e-07 
266 1 0.107137 0.250013 0.252355 55.845 3.86202e-07 
272 1 0.071409 0.142829 0.252224 55.845 2.97317e-07 
274 1 0.107164 0.178569 0.252361 55.845 3.34676e-07 
11 1 0.142807 0.178571 0.462421 55.845 -1.94141e-07 
12 1 0.178547 0.214282 0.462423 55.845 -4.91889e-08 
17 1 0.178529 0.1429 0.462393 55.845 -3.74903e-08 
18 1 0.214234 0.178551 0.462365 55.845 -5.65054e-08 
19 1 0.250038 0.214257 0.462443 55.845 -4.06407e-08 
24 1 0.250026 0.142815 0.462371 55.845 -1.8371e-07 
71 1 0.142897 0.178571 0.379533 55.845 -3.0887e-08 
72 1 0.142806 0.214305 0.421407 55.845 -7.85995e-09 
73 1 0.178596 0.214334 0.379543 55.845 2.05373e-07 
82 1 0.142849 0.14281 0.42147 55.845 -1.05435e-07 
83 1 0.178596 0.14289 0.37948 55.845 4.31558e-09 
84 1 0.178591 0.178561 0.421409 55.845 1.55028e-07 
85 1 0.214298 0.178592 0.379466 55.845 7.95395e-08 
86 1 0.214336 0.21436 0.421552 55.845 1.54816e-07 
87 1 0.250019 0.214267 0.379516 55.845 -9.05171e-08 
96 1 0.21427 0.142833 0.421426 55.845 4.56198e-08 
97 1 0.250033 0.142915 0.379253 55.845 -1.19872e-07 
98 1 0.24998 0.17851 0.421323 55.845 -1.56002e-07 
173 1 0.142865 0.178606 0.29396 55.845 1.58167e-07 
174 1 0.142844 0.214323 0.336445 55.845 1.37098e-07 
175 1 0.178573 0.214292 0.293934 55.845 7.62383e-08 
184 1 0.142937 0.142895 0.336334 55.845 -1.89821e-08 
185 1 0.178526 0.142818 0.294073 55.845 1.23011e-07 
186 1 0.178547 0.178601 0.33646 55.845 1.5884e-07 
187 1 0.214189 0.178626 0.293871 55.845 1.87019e-07 
188 1 0.214276 0.214371 0.33636 55.845 -4.89208e-08 
189 1 0.249958 0.214348 0.29392 55.845 -5.53429e-08 
198 1 0.214258 0.142792 0.336336 55.845 7.43133e-08 
199 1 0.24996 0.142891 0.293897 55.845 2.66477e-07 
200 1 0.249971 0.178589 0.336397 55.845 -1.25619e-07 
276 1 0.1429 0.214351 0.252269 55.845 3.17273e-07 
286 1 0.142861 0.142874 0.252322 55.845 4.54878e-07 
288 1 0.178594 0.17861 0.252272 55.845 3.6431e-07 
290 1 0.21437 0.214339 0.252321 55.845 2.66652e-07 
300 1 0.214257 0.142855 0.252278 55.845 4.84682e-07 
302 1 0.249946 0.178565 0.252274 55.845 3.68866e-07 
25 1 0.285662 0.178544 0.462488 55.845 -2.26756e-07 
26 1 0.321455 0.21426 0.46245 55.845 -1.8925e-07 
31 1 0.321392 0.142815 0.462524 55.845 -2.67117e-08 
32 1 0.357157 0.178564 0.462506 55.845 -7.11863e-08 
99 1 0.285792 0.178629 0.379349 55.845 -2.14925e-07 
100 1 0.285735 0.214278 0.421362 55.845 -5.89914e-08 
101 1 0.321407 0.214336 0.379366 55.845 6.85792e-09 
110 1 0.28569 0.142941 0.421456 55.845 -1.22672e-07 
111 1 0.321419 0.142918 0.37944 55.845 -3.04911e-08 
112 1 0.321425 0.178584 0.42137 55.845 3.18722e-08 
113 1 0.357227 0.178518 0.379389 55.845 2.50877e-08 
114 1 0.35711 0.214251 0.421283 55.845 2.60139e-08 
126 1 0.357119 0.142942 0.421425 55.845 9.49606e-08 
201 1 0.285705 0.178573 0.29384 55.845 1.9418e-08 
202 1 0.285776 0.214253 0.336262 55.845 -2.13486e-07 
203 1 0.321395 0.214321 0.293778 55.845 7.6662e-09 
212 1 0.28577 0.142861 0.336319 55.845 -1.1485e-08 
213 1 0.321447 0.142821 0.293797 55.845 4.47518e-08 
214 1 0.321399 0.178572 0.33631 55.845 -2.43547e-08 
215 1 0.357123 0.178639 0.293949 55.845 5.36198e-08 