ITEM: TIMESTEP
1700
ITEM: NUMBER OF ATOMS
5880
ITEM: BOX BOUNDS pp pp ff
-27.9814 27.9814
-27.9814 27.9814
0 34.092
ITEM: ATOMS id type xs ys zs mass q 
259 1 -2.84348e-05 0.10716 0.208862 55.845 4.77679e-08 
267 1 -5.222e-05 0.0357648 0.208841 55.845 -1.48709e-07 
269 1 0.0357045 0.0714542 0.208759 55.845 -3.89841e-07 
271 1 0.0714614 0.107185 0.208901 55.845 -3.79797e-07 
279 1 0.0357545 -1.52423e-05 0.208964 55.845 -1.98301e-09 
281 1 0.0714351 0.0357053 0.20895 55.845 -7.8069e-08 
283 1 0.107204 0.0714994 0.208876 55.845 -1.67405e-07 
293 1 0.107231 2.6929e-05 0.208928 55.845 -2.10263e-07 
361 1 1.91402e-07 0.10717 0.125184 55.845 3.09855e-07 
369 1 2.81752e-05 0.0357636 0.125227 55.845 4.11749e-07 
370 1 -1.99085e-05 0.0714179 0.166741 55.845 1.5161e-07 
371 1 0.0357945 0.0713966 0.125113 55.845 3.70822e-07 
372 1 0.0357374 0.107132 0.166733 55.845 2.96047e-07 
373 1 0.071492 0.107147 0.125272 55.845 6.38704e-08 
380 1 4.17731e-05 2.6702e-05 0.166878 55.845 1.10609e-07 
381 1 0.035728 -1.52435e-05 0.125272 55.845 1.65089e-07 
382 1 0.0357092 0.0356753 0.166767 55.845 2.39708e-07 
383 1 0.0714233 0.0356903 0.125125 55.845 -1.49583e-08 
384 1 0.0714462 0.0714081 0.166763 55.845 3.33124e-07 
385 1 0.107203 0.0714249 0.125141 55.845 1.32506e-07 
386 1 0.107189 0.107143 0.166695 55.845 -7.51369e-08 
394 1 0.0714744 -2.61928e-05 0.166725 55.845 1.20937e-07 
395 1 0.1071 1.39327e-05 0.125199 55.845 -1.56799e-07 
396 1 0.107133 0.0357143 0.166859 55.845 3.55844e-07 
463 1 0 0.107143 0.0416667 55.845 -1.52801e-07 
471 1 0 0.0357143 0.0416667 55.845 -6.05397e-08 
472 1 7.84073e-05 0.0714024 0.0839805 55.845 -1.01109e-07 
473 1 0.0357143 0.0714286 0.0416667 55.845 1.08967e-07 
474 1 0.0357464 0.107103 0.0841113 55.845 1.90133e-07 
475 1 0.0714286 0.107143 0.0416667 55.845 -1.0914e-07 
482 1 4.70864e-05 4.73597e-05 0.0840137 55.845 -4.62308e-07 
483 1 0.0357143 0 0.0416667 55.845 -3.221e-08 
484 1 0.0357306 0.0356994 0.0841302 55.845 -2.86463e-07 
485 1 0.0714286 0.0357143 0.0416667 55.845 -3.10324e-08 
486 1 0.0713902 0.0714131 0.0840451 55.845 -1.09673e-07 
487 1 0.107143 0.0714286 0.0416667 55.845 -2.30515e-07 
488 1 0.107067 0.107149 0.0839487 55.845 -5.60073e-07 
496 1 0.0714136 -7.59043e-05 0.0840641 55.845 -4.36353e-07 
497 1 0.107143 0 0.0416667 55.845 -5.94202e-08 
498 1 0.107123 0.0356604 0.0839091 55.845 -4.38169e-07 
567 1 0 0.0714286 0 55.845 3.13466e-08 
568 1 0.0357143 0.107143 0 55.845 -1.10143e-07 
572 1 0 0 0 55.845 -1.03973e-07 
573 1 0.0357143 0.0357143 0 55.845 1.86329e-07 
574 1 0.0714286 0.0714286 0 55.845 -3.03121e-08 
575 1 0.107143 0.107143 0 55.845 1.45032e-07 
579 1 0.0714286 0 0 55.845 2.13218e-07 
580 1 0.107143 0.0357143 0 55.845 -7.55634e-08 
285 1 0.142912 0.107131 0.208898 55.845 1.6453e-07 
295 1 0.142917 0.0356918 0.208968 55.845 -1.34841e-07 
297 1 0.17855 0.0714496 0.208975 55.845 3.891e-08 
299 1 0.214175 0.107137 0.208946 55.845 9.18038e-08 
307 1 0.178547 -1.81846e-05 0.208924 55.845 -3.64706e-07 
309 1 0.214263 0.0357609 0.209014 55.845 -7.74133e-08 
311 1 0.250023 0.0714929 0.208964 55.845 -6.61774e-08 
387 1 0.142867 0.107193 0.125032 55.845 3.23793e-08 
397 1 0.142814 0.03572 0.125184 55.845 4.05384e-07 
398 1 0.142875 0.0714064 0.166643 55.845 1.76162e-07 
399 1 0.178616 0.0714207 0.125161 55.845 2.65427e-07 
400 1 0.178569 0.107141 0.166639 55.845 -2.54681e-07 
401 1 0.214309 0.107162 0.125173 55.845 1.90824e-07 
408 1 0.14283 -6.40045e-05 0.166678 55.845 2.30812e-07 
409 1 0.178534 5.587e-05 0.125137 55.845 3.79318e-07 
410 1 0.178626 0.0357608 0.166722 55.845 1.39398e-07 
411 1 0.21427 0.0358078 0.125124 55.845 1.06089e-07 
412 1 0.214317 0.0714221 0.166708 55.845 -2.7022e-07 
413 1 0.250063 0.0714888 0.125237 55.845 2.6847e-07 
414 1 0.25003 0.107155 0.166787 55.845 -1.63473e-07 
424 1 0.214218 4.04041e-05 0.166786 55.845 -1.65395e-07 
426 1 0.249976 0.0357115 0.166747 55.845 1.79876e-08 
489 1 0.142857 0.107143 0.0416667 55.845 -6.39342e-08 
499 1 0.142857 0.0357143 0.0416667 55.845 -7.08541e-08 
500 1 0.142843 0.071445 0.0840091 55.845 -3.81597e-07 
501 1 0.178571 0.0714286 0.0416667 55.845 -2.81551e-08 
502 1 0.178593 0.107145 0.0839596 55.845 -6.90358e-07 
503 1 0.214286 0.107143 0.0416667 55.845 1.6201e-07 
510 1 0.14286 -5.07124e-05 0.0839667 55.845 -2.51262e-08 
511 1 0.178571 0 0.0416667 55.845 4.44998e-08 
512 1 0.17855 0.0357772 0.0839231 55.845 -1.89311e-07 
513 1 0.214286 0.0357143 0.0416667 55.845 1.41851e-08 
514 1 0.214322 0.0714718 0.0839527 55.845 -4.41617e-07 
515 1 0.25 0.0714286 0.0416667 55.845 9.04506e-08 
516 1 0.250023 0.107161 0.084042 55.845 -2.55476e-07 
526 1 0.214344 -1.09812e-05 0.0840127 55.845 -1.47268e-07 
528 1 0.250019 0.0357209 0.0840416 55.845 -4.47871e-08 
581 1 0.142857 0.0714286 0 55.845 9.46977e-08 
582 1 0.178571 0.107143 0 55.845 4.31596e-07 
586 1 0.142857 0 0 55.845 -2.10219e-08 
587 1 0.178571 0.0357143 0 55.845 -3.96623e-08 
588 1 0.214286 0.0714286 0 55.845 2.54545e-07 
589 1 0.25 0.107143 0 55.845 7.46756e-07 
594 1 0.214286 0 0 55.845 6.01119e-08 
595 1 0.25 0.0357143 0 55.845 8.32887e-08 
313 1 0.285697 0.1071 0.208936 55.845 -2.56605e-08 
323 1 0.249956 7.01739e-05 0.208985 55.845 -3.42279e-07 
325 1 0.285626 0.0356665 0.208986 55.845 -3.5359e-07 
327 1 0.321525 0.0714088 0.208994 55.845 -1.82872e-07 
329 1 0.357103 0.107126 0.208819 55.845 5.41335e-08 
337 1 0.321442 5.1306e-05 0.208909 55.845 -3.36374e-07 
339 1 0.357118 0.035721 0.208723 55.845 -2.64409e-07 
415 1 0.285713 0.107131 0.12519 55.845 1.24197e-07 
425 1 0.250004 -3.04524e-05 0.125232 55.845 1.51668e-07 
427 1 0.285676 0.0357214 0.125231 55.845 4.2269e-07 
428 1 0.285768 0.0713761 0.166815 55.845 3.11393e-07 
429 1 0.321447 0.0714072 0.125231 55.845 -2.09372e-07 
430 1 0.321422 0.107086 0.166736 55.845 5.16354e-07 
431 1 0.357117 0.107144 0.125152 55.845 3.61443e-08 
439 1 0.321428 -2.98477e-06 0.125217 55.845 3.39993e-08 
440 1 0.321387 0.0357427 0.166725 55.845 3.81796e-07 
441 1 0.357153 0.0356579 0.125331 55.845 -3.57188e-07 
442 1 0.357131 0.0714462 0.166709 55.845 2.81424e-07 
517 1 0.285714 0.107143 0.0416667 55.845 1.76683e-07 
527 1 0.25 0 0.0416667 55.845 1.56667e-07 
529 1 0.285714 0.0357143 0.0416667 55.845 1.00963e-08 
530 1 0.285732 0.0714435 0.0839329 55.845 -9.74292e-08 
531 1 0.321429 0.0714286 0.0416667 55.845 -3.63582e-07 
532 1 0.321456 0.107074 0.0840486 55.845 -3.13102e-07 
533 1 0.357143 0.107143 0.0416667 55.845 5.29491e-09 
603 1 0.357143 0.0714286 0 55.845 1.84187e-07 
541 1 0.321429 0 0.0416667 55.845 6.71596e-08 
542 1 0.321463 0.0357044 0.0839899 55.845 -7.60845e-08 
543 1 0.357143 0.0357143 0.0416667 55.845 2.11915e-08 
544 1 0.357102 0.0714051 0.0840584 55.845 -2.43507e-07 
602 1 0.321429 0.0357143 0 55.845 -1.40511e-07 
596 1 0.285714 0.0714286 0 55.845 -1.22324e-07 
597 1 0.321429 0.107143 0 55.845 1.61251e-07 
612 1 0.464286 0.0357143 0 55.845 4.53249e-07 
611 1 0.428571 0 0 55.845 1.87565e-07 
610 1 0.464286 0.107143 0 55.845 -1.43825e-07 
609 1 0.428571 0.0714286 0 55.845 -4.17451e-08 
608 1 0.392857 0.0357143 0 55.845 3.76821e-07 
341 1 0.392842 0.0714117 0.208946 55.845 -4.16191e-07 
343 1 0.428521 0.107118 0.209014 55.845 -3.3043e-07 
348 1 0.392874 -4.59861e-05 0.208945 55.845 -1.47607e-07 
350 1 0.428571 0.0356874 0.208889 55.845 -1.48851e-07 
352 1 0.464299 0.0713678 0.208885 55.845 -1.83549e-07 
355 1 0.46424 -4.05132e-05 0.208905 55.845 2.58429e-07 
443 1 0.39288 0.0714624 0.125175 55.845 -2.59641e-07 
444 1 0.392817 0.107065 0.166751 55.845 2.85107e-07 
445 1 0.428531 0.107086 0.125324 55.845 3.18979e-07 
604 1 0.392857 0.107143 0 55.845 2.15576e-07 
450 1 0.392809 -1.5963e-05 0.125189 55.845 1.78177e-07 
451 1 0.392892 0.0356898 0.166752 55.845 1.81752e-07 
452 1 0.428556 0.0357378 0.12511 55.845 -7.66973e-08 
453 1 0.428536 0.0713915 0.166906 55.845 5.13811e-08 
454 1 0.464216 0.0714121 0.125237 55.845 1.814e-07 
455 1 0.464238 0.107165 0.16679 55.845 2.0423e-07 
456 1 0.428591 -3.207e-05 0.166684 55.845 2.9126e-07 
457 1 0.464253 -4.02354e-05 0.125218 55.845 2.01567e-07 
458 1 0.46433 0.0356644 0.166664 55.845 5.89905e-08 
545 1 0.392857 0.0714286 0.0416667 55.845 7.37319e-08 
546 1 0.39283 0.10712 0.0841016 55.845 2.09312e-07 
547 1 0.428571 0.107143 0.0416667 55.845 8.68204e-10 
552 1 0.392857 0 0.0416667 55.845 2.28275e-07 
553 1 0.392834 0.0357569 0.0840509 55.845 -2.11942e-07 
554 1 0.428571 0.0357143 0.0416667 55.845 1.38324e-07 
555 1 0.428492 0.0714847 0.0840162 55.845 -1.21633e-07 
556 1 0.464286 0.0714286 0.0416667 55.845 -2.20915e-07 
557 1 0.464279 0.107155 0.0840384 55.845 -2.49797e-08 
558 1 0.42855 2.15073e-05 0.0839608 55.845 -1.12845e-07 
559 1 0.464286 0 0.0416667 55.845 1.72915e-07 
560 1 0.464306 0.035722 0.0840521 55.845 -4.12963e-07 
255 1 3.50726e-06 0.178574 0.208905 55.845 -3.42251e-07 
257 1 0.0356975 0.214242 0.209001 55.845 -3.50845e-07 
261 1 0.035744 0.142881 0.208925 55.845 -2.83882e-07 
263 1 0.0714459 0.178563 0.208847 55.845 -2.68103e-07 
265 1 0.1071 0.214391 0.208937 55.845 -2.6555e-07 
273 1 0.107157 0.142851 0.208814 55.845 -2.76023e-08 
357 1 -4.43379e-05 0.178582 0.125068 55.845 -4.51833e-08 
358 1 3.23239e-05 0.214289 0.166711 55.845 3.07095e-08 
359 1 0.0357069 0.214247 0.125243 55.845 2.16014e-07 
360 1 0.0357033 0.249974 0.166799 55.845 1.73603e-07 
362 1 1.80566e-05 0.142914 0.166664 55.845 1.82826e-07 
363 1 0.0357683 0.142752 0.12504 55.845 1.28641e-07 
364 1 0.0356714 0.178543 0.166691 55.845 5.20475e-07 
365 1 0.071415 0.178588 0.125151 55.845 3.14554e-07 
366 1 0.0714616 0.214209 0.166685 55.845 3.6619e-07 
367 1 0.107199 0.214281 0.125135 55.845 -1.75468e-07 
368 1 0.107109 0.250026 0.166737 55.845 2.0667e-08 
374 1 0.0714029 0.142882 0.166692 55.845 2.9053e-07 
375 1 0.107166 0.142888 0.125185 55.845 1.40948e-07 
376 1 0.107212 0.178526 0.166702 55.845 1.73486e-07 
459 1 0 0.178571 0.0416667 55.845 -8.83319e-08 
460 1 3.08305e-06 0.214345 0.0840935 55.845 -2.83178e-07 
461 1 0.0357143 0.214286 0.0416667 55.845 8.81541e-08 
462 1 0.0356398 0.250041 0.0839295 55.845 -1.82127e-07 
464 1 -5.90707e-05 0.142826 0.0840049 55.845 -1.09014e-07 
465 1 0.0357143 0.142857 0.0416667 55.845 -1.29672e-07 
466 1 0.0357458 0.178591 0.0839585 55.845 -1.4502e-07 
467 1 0.0714286 0.178571 0.0416667 55.845 -1.64491e-07 
468 1 0.0714208 0.214205 0.0840292 55.845 -1.61115e-07 
469 1 0.107143 0.214286 0.0416667 55.845 -1.76742e-07 
470 1 0.10716 0.250011 0.0839833 55.845 -2.96624e-07 
476 1 0.0714934 0.14287 0.0840398 55.845 -2.34149e-07 
477 1 0.107143 0.142857 0.0416667 55.845 -1.29919e-07 
478 1 0.107114 0.178532 0.0839824 55.845 -4.1932e-07 
561 1 0 0.214286 0 55.845 3.60304e-07 
562 1 0.0357143 0.25 0 55.845 2.10463e-07 
563 1 0 0.142857 0 55.845 9.39089e-08 
564 1 0.0357143 0.178571 0 55.845 2.24264e-07 
565 1 0.0714286 0.214286 0 55.845 4.14213e-08 
566 1 0.107143 0.25 0 55.845 7.28533e-08 
569 1 0.0714286 0.142857 0 55.845 1.83776e-08 
570 1 0.107143 0.178571 0 55.845 1.26143e-07 
275 1 0.142878 0.178519 0.208889 55.845 1.24798e-07 
277 1 0.178531 0.214314 0.208897 55.845 -3.91219e-08 
287 1 0.178586 0.14286 0.20898 55.845 2.64679e-07 
289 1 0.214258 0.178512 0.208921 55.845 1.90903e-08 
291 1 0.249962 0.214362 0.208982 55.845 -1.14965e-07 
301 1 0.249948 0.142834 0.208943 55.845 2.17546e-07 
377 1 0.142858 0.178563 0.125202 55.845 2.09171e-07 
378 1 0.142834 0.214266 0.16681 55.845 -1.29127e-07 
379 1 0.17856 0.214314 0.125226 55.845 -3.27201e-10 
388 1 0.142845 0.142846 0.166714 55.845 -5.13733e-08 
389 1 0.178601 0.142958 0.125132 55.845 3.89254e-07 
390 1 0.178471 0.178588 0.166806 55.845 6.21019e-09 
391 1 0.214264 0.178526 0.125165 55.845 3.97453e-07 
392 1 0.214287 0.214294 0.166787 55.845 -2.44583e-07 
393 1 0.250011 0.214225 0.125152 55.845 3.97845e-07 
402 1 0.214297 0.142825 0.166694 55.845 -2.80537e-07 
403 1 0.249991 0.14294 0.125103 55.845 3.21965e-07 
404 1 0.249983 0.178548 0.166836 55.845 -1.35292e-07 
479 1 0.142857 0.178571 0.0416667 55.845 1.06628e-07 
480 1 0.142859 0.214187 0.0840473 55.845 -4.55127e-07 
481 1 0.178571 0.214286 0.0416667 55.845 7.35086e-08 
490 1 0.142791 0.14288 0.0839056 55.845 -5.93273e-07 
491 1 0.178571 0.142857 0.0416667 55.845 6.37084e-08 
492 1 0.178582 0.17859 0.0840276 55.845 -6.82953e-07 
493 1 0.214286 0.178571 0.0416667 55.845 -8.37998e-08 
494 1 0.214262 0.214242 0.0840189 55.845 -3.54269e-07 
495 1 0.25 0.214286 0.0416667 55.845 4.72299e-08 
504 1 0.214332 0.142788 0.0839138 55.845 -6.76621e-07 
505 1 0.25 0.142857 0.0416667 55.845 3.0574e-07 
506 1 0.249997 0.178534 0.084009 55.845 -5.94785e-07 
571 1 0.142857 0.214286 0 55.845 3.91113e-07 
576 1 0.142857 0.142857 0 55.845 3.42008e-07 
577 1 0.178571 0.178571 0 55.845 2.25972e-07 
578 1 0.214286 0.214286 0 55.845 3.48224e-07 
583 1 0.214286 0.142857 0 55.845 3.59218e-07 
584 1 0.25 0.178571 0 55.845 4.05907e-07 
303 1 0.285666 0.178555 0.208952 55.845 4.12705e-09 
305 1 0.321467 0.214297 0.208867 55.845 -9.66255e-08 
315 1 0.321399 0.142852 0.208928 55.845 9.31937e-09 
317 1 0.357035 0.178584 0.208944 55.845 -1.20149e-07 
405 1 0.285698 0.178537 0.125266 55.845 2.33451e-07 
406 1 0.285672 0.214291 0.166766 55.845 6.26609e-08 
407 1 0.321316 0.214245 0.125137 55.845 1.01338e-07 
416 1 0.285645 0.142826 0.166834 55.845 4.41938e-08 
417 1 0.321412 0.1428 0.125202 55.845 1.48128e-07 
418 1 0.321339 0.178562 0.166615 55.845 2.04805e-07 
419 1 0.357063 0.178504 0.125253 55.845 2.63288e-07 
420 1 0.357096 0.214278 0.166657 55.845 2.92099e-07 
432 1 0.357124 0.142841 0.166727 55.845 5.50475e-07 
507 1 0.285714 0.178571 0.0416667 55.845 1.25161e-07 
508 1 0.285698 0.214268 0.0839992 55.845 -4.46105e-07 
509 1 0.321429 0.214286 0.0416667 55.845 -7.47536e-08 
518 1 0.285738 0.142873 0.0840459 55.845 -5.29674e-07 
519 1 0.321429 0.142857 0.0416667 55.845 -1.05379e-08 
520 1 0.321368 0.178617 0.0840425 55.845 -6.9837e-07 
521 1 0.357143 0.178571 0.0416667 55.845 -1.81109e-07 
522 1 0.357086 0.214268 0.0840655 55.845 -3.83779e-07 
534 1 0.357087 0.142848 0.0840691 55.845 -2.1092e-07 
585 1 0.285714 0.214286 0 55.845 2.84602e-07 
590 1 0.285714 0.142857 0 55.845 7.61782e-07 
591 1 0.321429 0.178571 0 55.845 1.33747e-07 
592 1 0.357143 0.214286 0 55.845 4.12657e-08 
598 1 0.357143 0.142857 0 55.845 7.31122e-08 
319 1 0.392795 0.214291 0.208909 55.845 1.54323e-07 
321 1 0.428582 0.249991 0.208904 55.845 -1.49508e-07 
331 1 0.392911 0.142894 0.208952 55.845 -3.92276e-07 
333 1 0.428512 0.178647 0.208903 55.845 -1.85158e-07 
335 1 0.464264 0.214354 0.209009 55.845 -1.29979e-08 
345 1 0.464291 0.142934 0.208802 55.845 -3.45753e-07 
606 1 0.464286 0.178571 0 55.845 7.19179e-08 
421 1 0.392891 0.214271 0.125142 55.845 3.94992e-07 
422 1 0.392803 0.250022 0.166721 55.845 2.46382e-07 
423 1 0.42857 0.249934 0.125146 55.845 3.52524e-07 
433 1 0.392844 0.142884 0.125203 55.845 3.03615e-07 
434 1 0.392813 0.178554 0.166739 55.845 7.20636e-08 
435 1 0.428529 0.178513 0.125163 55.845 1.77649e-07 
436 1 0.428558 0.214235 0.166778 55.845 -1.75409e-08 
437 1 0.464269 0.214276 0.125204 55.845 3.81389e-07 
605 1 0.428571 0.142857 0 55.845 8.74263e-08 
446 1 0.428496 0.142849 0.166739 55.845 -1.32877e-07 
447 1 0.464256 0.142861 0.125154 55.845 5.39722e-07 
448 1 0.464238 0.178593 0.166861 55.845 -1.12793e-07 
523 1 0.392857 0.214286 0.0416667 55.845 -1.42659e-07 
524 1 0.392879 0.250022 0.0839939 55.845 -1.86621e-07 
525 1 0.428571 0.25 0.0416667 55.845 -5.55228e-08 
535 1 0.392857 0.142857 0.0416667 55.845 1.88809e-07 
536 1 0.392812 0.178598 0.0840056 55.845 -4.38876e-07 
537 1 0.428571 0.178571 0.0416667 55.845 -7.76819e-08 
538 1 0.428589 0.214321 0.0840804 55.845 -3.70384e-07 
539 1 0.464286 0.214286 0.0416667 55.845 1.04187e-08 
548 1 0.42848 0.142777 0.0840139 55.845 -1.42776e-07 
549 1 0.464286 0.142857 0.0416667 55.845 6.14067e-08 
550 1 0.4642 0.178555 0.0840901 55.845 -3.10842e-07 
593 1 0.392857 0.25 0 55.845 -5.57882e-08 
599 1 0.392857 0.178571 0 55.845 -1.21605e-08 
600 1 0.428571 0.214286 0 55.845 -3.16041e-08 
3 1 9.73847e-06 0.107156 0.459294 55.845 5.16886e-08 
7 1 -1.63718e-05 0.0357108 0.459343 55.845 -1.09397e-07 
8 1 0.0357604 0.0714238 0.459205 55.845 -1.53667e-07 
9 1 0.0714119 0.107123 0.459296 55.845 -2.60566e-07 
13 1 0.0356868 3.75549e-05 0.459306 55.845 -2.607e-08 
14 1 0.0714057 0.0357728 0.459192 55.845 -4.86433e-07 
15 1 0.107169 0.0713967 0.45929 55.845 -3.9321e-07 
20 1 0.107085 1.16789e-05 0.459235 55.845 -1.16856e-07 
55 1 1.75574e-05 0.107117 0.375479 55.845 2.70161e-07 
63 1 -5.26933e-05 0.0356879 0.375439 55.845 6.99473e-07 
64 1 3.67734e-05 0.0713923 0.417266 55.845 -2.91115e-07 
65 1 0.0357761 0.0713823 0.375481 55.845 2.81565e-07 
66 1 0.0357411 0.10718 0.417265 55.845 -6.19805e-07 
67 1 0.0714691 0.107153 0.37553 55.845 1.17202e-07 
74 1 -7.25495e-05 3.0845e-05 0.417321 55.845 7.12128e-08 
75 1 0.0356884 1.00499e-05 0.375424 55.845 5.09243e-07 
76 1 0.0356623 0.0356914 0.417256 55.845 -1.74411e-07 
77 1 0.0714278 0.0357717 0.375499 55.845 1.77142e-07 
78 1 0.0714374 0.0714672 0.417345 55.845 -5.57626e-07 
79 1 0.107089 0.0714246 0.375462 55.845 1.41239e-07 
80 1 0.107113 0.107137 0.417363 55.845 -2.12483e-07 
88 1 0.0713934 3.1667e-05 0.417245 55.845 -1.57633e-07 
89 1 0.107089 2.29176e-05 0.375492 55.845 1.7783e-07 
90 1 0.107092 0.03574 0.417285 55.845 -5.57565e-07 
157 1 1.04886e-05 0.107146 0.292749 55.845 2.13117e-07 
165 1 1.66336e-05 0.035736 0.292537 55.845 -4.81855e-08 
166 1 3.90443e-05 0.0713405 0.333791 55.845 -2.1447e-07 
167 1 0.0357963 0.0714114 0.292569 55.845 1.00209e-07 
168 1 0.0357523 0.1071 0.333907 55.845 1.48387e-07 
169 1 0.0714218 0.107185 0.292604 55.845 1.65955e-08 
176 1 -9.1277e-07 2.34097e-05 0.333725 55.845 -1.99593e-07 
177 1 0.0357422 1.62548e-05 0.292724 55.845 3.31561e-07 
178 1 0.03574 0.0357329 0.333933 55.845 -2.10805e-07 
179 1 0.0714329 0.0357311 0.292647 55.845 1.79333e-07 
180 1 0.0714088 0.0714643 0.333839 55.845 3.91594e-10 
181 1 0.107212 0.0714488 0.292763 55.845 5.92972e-08 
182 1 0.10714 0.107166 0.333889 55.845 2.22374e-07 
190 1 0.0714253 8.30299e-07 0.333932 55.845 -5.97684e-08 
191 1 0.107143 -1.13482e-05 0.292755 55.845 9.99117e-08 
192 1 0.107123 0.0357379 0.333812 55.845 -1.41618e-07 
268 1 1.63938e-05 0.071505 0.251276 55.845 -5.37174e-07 
270 1 0.0357079 0.107179 0.251314 55.845 -3.32501e-07 
278 1 2.34274e-06 -1.12407e-05 0.251155 55.845 -4.48942e-07 
280 1 0.0357012 0.0357105 0.251205 55.845 -3.23327e-07 
282 1 0.0714699 0.0714721 0.251213 55.845 -1.21337e-07 
284 1 0.107207 0.107114 0.25131 55.845 -6.96407e-08 
292 1 0.0715233 -1.14571e-05 0.251178 55.845 1.76513e-07 
294 1 0.107134 0.0357061 0.251281 55.845 6.37106e-08 
16 1 0.142786 0.107149 0.459292 55.845 -3.25811e-07 
21 1 0.1428 0.0356995 0.459255 55.845 -4.8697e-09 
22 1 0.178593 0.0714096 0.459275 55.845 2.11549e-07 
23 1 0.214302 0.107171 0.459248 55.845 -3.52122e-08 
27 1 0.178496 -4.18841e-05 0.459353 55.845 -8.37611e-08 
28 1 0.21426 0.0356961 0.45935 55.845 -1.06791e-07 
29 1 0.250005 0.0714671 0.459262 55.845 -1.39466e-07 
81 1 0.142821 0.107174 0.375542 55.845 -2.50109e-08 
91 1 0.142861 0.0357222 0.375536 55.845 5.97761e-07 
92 1 0.142899 0.0714547 0.417269 55.845 5.06332e-08 
93 1 0.178588 0.0714594 0.375632 55.845 4.3343e-07 
94 1 0.178548 0.107152 0.417327 55.845 -1.32132e-07 
95 1 0.214212 0.10713 0.375501 55.845 1.64229e-08 
102 1 0.142827 5.65253e-05 0.417278 55.845 -2.00419e-07 
103 1 0.178561 -1.00179e-05 0.375457 55.845 6.23162e-07 
104 1 0.178561 0.0356879 0.417347 55.845 -2.27664e-07 
105 1 0.214285 0.0357447 0.375539 55.845 5.86412e-07 
106 1 0.214332 0.0714657 0.41732 55.845 -4.0641e-07 
107 1 0.250039 0.0714598 0.375564 55.845 3.31586e-07 
108 1 0.250018 0.107129 0.417316 55.845 -2.2141e-07 
118 1 0.214266 9.12688e-06 0.41739 55.845 -6.4038e-07 
120 1 0.249997 0.035762 0.417354 55.845 -6.46203e-07 
183 1 0.142869 0.107157 0.292673 55.845 1.48762e-08 
193 1 0.142889 0.0357283 0.292753 55.845 2.3352e-08 
194 1 0.142878 0.0714223 0.333976 55.845 3.68782e-08 
195 1 0.178578 0.0713509 0.292809 55.845 2.04729e-07 
196 1 0.17857 0.107125 0.333918 55.845 -1.61452e-07 
197 1 0.21422 0.107177 0.292714 55.845 1.40905e-07 
204 1 0.142853 1.5151e-05 0.333938 55.845 -1.17805e-07 
205 1 0.178621 -1.97085e-05 0.292813 55.845 3.1279e-07 
206 1 0.178595 0.0356778 0.333904 55.845 -5.27046e-08 
207 1 0.214349 0.0356875 0.292686 55.845 4.89527e-07 
208 1 0.214318 0.0714337 0.333945 55.845 -2.65166e-07 
209 1 0.249977 0.0714359 0.292838 55.845 2.44965e-07 
210 1 0.249978 0.107209 0.333875 55.845 -9.7669e-08 
220 1 0.214277 -5.00639e-05 0.333986 55.845 -1.58231e-07 
222 1 0.249997 0.0357065 0.33384 55.845 4.91199e-09 
296 1 0.142912 0.0714246 0.251402 55.845 -2.1177e-07 
298 1 0.178584 0.107048 0.251411 55.845 -2.19032e-07 
306 1 0.142911 -3.23496e-05 0.251346 55.845 -2.82914e-07 
308 1 0.178628 0.0357032 0.25127 55.845 -1.94311e-07 
310 1 0.214283 0.0714026 0.251334 55.845 -1.43561e-07 
312 1 0.249974 0.10709 0.251344 55.845 -1.08465e-07 
322 1 0.214311 1.02959e-05 0.251293 55.845 -2.65538e-07 
324 1 0.249996 0.0357523 0.251309 55.845 -1.75053e-07 
30 1 0.285714 0.1072 0.459296 55.845 -1.82841e-07 
35 1 0.24996 8.20111e-05 0.459395 55.845 1.25068e-07 
36 1 0.285658 0.035706 0.459343 55.845 2.90346e-08 
37 1 0.321475 0.0714431 0.459291 55.845 4.20036e-08 
38 1 0.357179 0.107127 0.459394 55.845 -5.77264e-07 
42 1 0.321442 6.64319e-05 0.459388 55.845 -7.51152e-08 
43 1 0.357066 0.0357466 0.459247 55.845 -2.167e-07 
109 1 0.285723 0.107191 0.375528 55.845 9.57082e-08 
119 1 0.24998 -1.21107e-05 0.375572 55.845 7.361e-07 
121 1 0.285641 0.0357641 0.3755 55.845 8.25813e-07 
122 1 0.285723 0.0714394 0.417324 55.845 4.10895e-08 
123 1 0.321355 0.0715225 0.375561 55.845 2.92943e-07 
124 1 0.321463 0.107206 0.417364 55.845 -6.51596e-08 
125 1 0.357132 0.107208 0.375568 55.845 -1.66266e-08 
133 1 0.321371 7.3973e-05 0.375471 55.845 4.33901e-07 
134 1 0.321319 0.0357599 0.417253 55.845 -3.46718e-07 
135 1 0.357095 0.035677 0.375541 55.845 2.71072e-07 
136 1 0.357165 0.0714075 0.417206 55.845 -3.63045e-07 
211 1 0.28576 0.107128 0.292723 55.845 -1.5097e-07 
221 1 0.249959 3.30686e-06 0.292742 55.845 4.35674e-07 
223 1 0.285645 0.0357536 0.292693 55.845 1.12459e-07 
224 1 0.285705 0.0715121 0.333914 55.845 4.61678e-09 
225 1 0.321428 0.0713832 0.292704 55.845 1.72949e-08 
226 1 0.321462 0.107132 0.333866 55.845 -4.04623e-08 
227 1 0.357071 0.107096 0.292668 55.845 1.72163e-08 
235 1 0.321368 1.50432e-05 0.292812 55.845 1.70647e-07 
236 1 0.321383 0.0357556 0.333921 55.845 2.72748e-08 
237 1 0.357105 0.0356952 0.292635 55.845 1.30113e-07 
238 1 0.357177 0.0714442 0.33394 55.845 -3.44712e-08 
326 1 0.285688 0.0714117 0.25129 55.845 -1.45069e-07 
328 1 0.321398 0.107142 0.251214 55.845 7.24343e-09 
338 1 0.321398 0.0356791 0.251218 55.845 -4.26908e-09 
340 1 0.357128 0.071434 0.251259 55.845 3.63524e-07 
44 1 0.392801 0.0714276 0.459202 55.845 -1.97953e-07 
45 1 0.428591 0.107247 0.459236 55.845 -2.96673e-09 
47 1 0.392824 -9.13811e-06 0.4593 55.845 1.13357e-07 
48 1 0.428541 0.0356864 0.459238 55.845 3.44761e-07 
49 1 0.464268 0.0713686 0.459245 55.845 2.1742e-07 
50 1 0.464292 -8.71733e-05 0.459313 55.845 5.86117e-08 
137 1 0.392889 0.0714604 0.375468 55.845 3.80833e-07 
138 1 0.392833 0.10714 0.417354 55.845 -2.29033e-07 
139 1 0.428596 0.107147 0.37544 55.845 5.9578e-07 
144 1 0.392774 -3.40256e-05 0.375535 55.845 3.30585e-07 
145 1 0.392799 0.0356942 0.417246 55.845 -2.81332e-07 
146 1 0.42857 0.035728 0.375505 55.845 3.77691e-07 
147 1 0.42859 0.0715212 0.417372 55.845 1.98324e-07 
148 1 0.464276 0.0713886 0.375514 55.845 4.03467e-07 
149 1 0.464267 0.107142 0.417269 55.845 -1.78353e-07 
150 1 0.428497 -2.45492e-05 0.417259 55.845 -1.13197e-07 
151 1 0.464286 -8.25127e-06 0.375565 55.845 1.8542e-07 
152 1 0.464235 0.0356953 0.417318 55.845 -2.61287e-07 
239 1 0.392856 0.0714583 0.292579 55.845 1.85595e-07 
240 1 0.392871 0.107146 0.333879 55.845 1.39687e-07 
241 1 0.428569 0.107156 0.292677 55.845 2.32777e-07 
246 1 0.392798 -6.02279e-05 0.292629 55.845 9.52738e-08 
247 1 0.392883 0.0357187 0.333846 55.845 -1.74116e-07 
248 1 0.428503 0.0356849 0.292615 55.845 -3.00923e-07 
249 1 0.428522 0.071432 0.333883 55.845 2.87339e-08 
250 1 0.464301 0.0714157 0.292628 55.845 1.61989e-07 
251 1 0.464258 0.107135 0.333904 55.845 -2.40083e-07 
252 1 0.428506 6.06861e-05 0.333953 55.845 -3.57205e-07 
253 1 0.464185 -5.58717e-05 0.29275 55.845 1.72956e-07 
254 1 0.464278 0.0357219 0.333834 55.845 -3.21126e-07 
342 1 0.392812 0.107124 0.251264 55.845 1.55175e-08 
349 1 0.392802 0.0357269 0.251238 55.845 1.14503e-07 
351 1 0.428548 0.0714354 0.251202 55.845 -3.54149e-07 
353 1 0.464278 0.107186 0.251162 55.845 -1.07521e-07 
354 1 0.428521 -2.20261e-05 0.251208 55.845 1.02801e-07 
356 1 0.464323 0.0356287 0.251221 55.845 -1.5768e-07 
1 1 -1.30045e-05 0.178608 0.459248 55.845 -2.24006e-08 
2 1 0.0355884 0.214355 0.459304 55.845 -6.74999e-09 
4 1 0.0357148 0.142897 0.459166 55.845 -2.84025e-07 
5 1 0.0713935 0.178538 0.459342 55.845 6.03236e-08 
6 1 0.107077 0.214318 0.459411 55.845 -2.91285e-08 
10 1 0.107091 0.142851 0.459276 55.845 -1.64665e-07 
51 1 4.16224e-05 0.178582 0.375499 55.845 4.01806e-07 
52 1 3.98639e-05 0.214338 0.417301 55.845 -2.04207e-07 
53 1 0.035723 0.214259 0.375488 55.845 3.66611e-07 
54 1 0.0357078 0.249968 0.417171 55.845 -3.68871e-07 
56 1 9.80197e-06 0.142866 0.417159 55.845 -6.83595e-07 
57 1 0.0357177 0.142792 0.375477 55.845 5.99237e-08 
58 1 0.0357263 0.178491 0.417262 55.845 -3.11812e-07 
59 1 0.0714197 0.178561 0.375381 55.845 2.92686e-07 
60 1 0.0714001 0.21418 0.417342 55.845 -1.25539e-07 
61 1 0.107127 0.21427 0.375512 55.845 1.49831e-07 
62 1 0.107084 0.249959 0.41737 55.845 -1.94636e-07 
68 1 0.0714072 0.1429 0.417239 55.845 -1.00238e-07 
69 1 0.107097 0.142825 0.375612 55.845 2.65068e-08 
70 1 0.107134 0.178637 0.417343 55.845 -4.78475e-09 
153 1 3.20251e-05 0.178529 0.29268 55.845 1.64523e-07 
154 1 1.28538e-05 0.214312 0.333798 55.845 1.13022e-07 
155 1 0.0357216 0.214298 0.292632 55.845 5.54986e-09 
156 1 0.035651 0.25 0.333901 55.845 -7.81372e-08 
158 1 -4.22212e-06 0.142864 0.333898 55.845 -1.54832e-07 
159 1 0.0357496 0.142837 0.292748 55.845 2.00965e-07 
160 1 0.0357178 0.178633 0.333932 55.845 -1.23415e-07 
161 1 0.0714157 0.178642 0.292709 55.845 -1.08179e-07 
162 1 0.0714474 0.214276 0.333905 55.845 -1.24512e-07 
163 1 0.107177 0.214349 0.292773 55.845 6.59628e-08 
164 1 0.107134 0.249999 0.333982 55.845 -6.47535e-08 
170 1 0.0714688 0.14285 0.333805 55.845 1.06776e-07 
171 1 0.107189 0.142927 0.29275 55.845 2.27701e-08 
172 1 0.107132 0.178493 0.333859 55.845 -2.8085e-08 
256 1 -1.99393e-05 0.214294 0.251281 55.845 -2.83714e-07 
258 1 0.0357306 0.250008 0.251244 55.845 -3.05904e-07 
260 1 5.58628e-05 0.142808 0.251338 55.845 -1.95001e-08 
262 1 0.0357159 0.178591 0.251312 55.845 4.30653e-08 
264 1 0.0714216 0.214276 0.251351 55.845 -2.38478e-07 
266 1 0.107063 0.250015 0.251316 55.845 -7.29728e-08 
272 1 0.0714715 0.142943 0.251222 55.845 1.00737e-07 
274 1 0.107169 0.178659 0.251267 55.845 1.22143e-07 
11 1 0.142866 0.178643 0.459184 55.845 -3.92165e-08 
12 1 0.178578 0.214233 0.459188 55.845 1.41919e-07 
17 1 0.178542 0.142878 0.459197 55.845 -4.36245e-08 
18 1 0.214309 0.17858 0.459244 55.845 3.13027e-07 
19 1 0.249968 0.21424 0.459171 55.845 -5.50096e-08 
24 1 0.249976 0.142801 0.459147 55.845 -2.13969e-07 
71 1 0.142862 0.178604 0.375497 55.845 -7.32979e-08 
72 1 0.142809 0.214332 0.417392 55.845 -2.81116e-07 
73 1 0.178506 0.214292 0.375508 55.845 1.29214e-07 
82 1 0.142849 0.142931 0.417343 55.845 -7.1094e-08 
83 1 0.178537 0.142882 0.37539 55.845 -3.39801e-08 
84 1 0.178606 0.178534 0.417248 55.845 7.60409e-08 
85 1 0.214323 0.178582 0.375533 55.845 1.19769e-07 
86 1 0.214304 0.21431 0.41723 55.845 -8.3635e-09 
87 1 0.25001 0.214269 0.375453 55.845 4.84151e-08 
96 1 0.214272 0.142761 0.417171 55.845 2.31472e-07 
97 1 0.250001 0.142885 0.375591 55.845 -1.22614e-07 
98 1 0.250033 0.178566 0.417303 55.845 -1.37327e-07 
173 1 0.142839 0.17852 0.292684 55.845 2.19522e-07 
174 1 0.142906 0.214326 0.33397 55.845 -1.85349e-07 
175 1 0.178535 0.214257 0.292581 55.845 6.40614e-08 
184 1 0.142868 0.142839 0.333841 55.845 8.7257e-09 
185 1 0.17858 0.142872 0.292772 55.845 1.81757e-07 
186 1 0.17854 0.178644 0.333865 55.845 -2.90473e-07 
187 1 0.214294 0.17863 0.292703 55.845 7.98354e-08 
188 1 0.214233 0.214361 0.33381 55.845 -4.10813e-07 
189 1 0.250001 0.214307 0.292647 55.845 1.23634e-07 
198 1 0.214281 0.142922 0.333947 55.845 -8.47395e-08 
199 1 0.249971 0.142787 0.292679 55.845 2.81617e-07 
200 1 0.250092 0.178555 0.333845 55.845 -9.13948e-09 
276 1 0.142834 0.214291 0.251139 55.845 1.07956e-07 
286 1 0.14288 0.142871 0.251312 55.845 2.72536e-07 
288 1 0.178621 0.178563 0.251227 55.845 2.16468e-09 
290 1 0.214234 0.214249 0.25128 55.845 -4.91761e-07 
300 1 0.214286 0.142903 0.251312 55.845 -5.46171e-08 
302 1 0.250019 0.178556 0.251292 55.845 -4.84886e-08 
25 1 0.285751 0.17856 0.45924 55.845 -4.27166e-07 
26 1 0.32143 0.214348 0.459182 55.845 -1.95164e-07 
31 1 0.321416 0.142877 0.459399 55.845 -1.85887e-07 
32 1 0.357083 0.178644 0.459406 55.845 -2.42122e-07 
99 1 0.285768 0.178575 0.375506 55.845 -2.50799e-07 
100 1 0.285727 0.214375 0.417358 55.845 -4.48379e-07 
101 1 0.3214 0.214251 0.375446 55.845 7.20584e-08 
110 1 0.285751 0.14288 0.417335 55.845 -1.35494e-07 
111 1 0.321444 0.142929 0.375622 55.845 -1.14473e-07 
112 1 0.321452 0.178565 0.417413 55.845 -3.66992e-08 
113 1 0.357123 0.178583 0.375397 55.845 2.73362e-07 
114 1 0.357112 0.214222 0.41719 55.845 -1.41807e-07 
126 1 0.357043 0.142875 0.417441 55.845 -4.05081e-08 
201 1 0.285713 0.178599 0.292656 55.845 2.95945e-07 
202 1 0.2857 0.214273 0.333875 55.845 -9.03996e-08 
203 1 0.321391 0.214277 0.292646 55.845 2.95214e-07 
212 1 0.2857 0.142857 0.333874 55.845 4.82028e-08 
213 1 0.321412 0.142866 0.292736 55.845 -7.69009e-09 
214 1 0.321409 0.178546 0.333796 55.845 3.01859e-07 
215 1 0.357119 0.178552 0.292684 55.845 1.11837e-07 