ITEM: TIMESTEP
2700
ITEM: NUMBER OF ATOMS
5880
ITEM: BOX BOUNDS pp pp ff
-27.9084 27.9084
-27.9084 27.9084
0 34.092
ITEM: ATOMS id type xs ys zs mass q 
259 1 -1.46908e-05 0.107158 0.209918 55.845 1.07858e-07 
267 1 7.57217e-06 0.0357677 0.209837 55.845 6.01961e-08 
269 1 0.035706 0.0714086 0.209943 55.845 4.2191e-07 
271 1 0.0714086 0.107132 0.209899 55.845 9.25503e-08 
279 1 0.0357907 4.31647e-05 0.209943 55.845 1.46792e-07 
281 1 0.0714353 0.0357144 0.209991 55.845 4.75702e-07 
283 1 0.107054 0.0714578 0.209904 55.845 3.61648e-07 
293 1 0.107101 -9.29283e-07 0.2098 55.845 1.56442e-07 
361 1 -2.15731e-05 0.10715 0.12676 55.845 1.90147e-07 
369 1 -0.000119979 0.0357013 0.12674 55.845 3.90995e-07 
370 1 -4.73373e-06 0.0714479 0.167966 55.845 -2.06214e-07 
371 1 0.0356709 0.0714482 0.126732 55.845 3.66595e-07 
372 1 0.035728 0.107155 0.167966 55.845 -4.71577e-09 
373 1 0.0714778 0.107176 0.126697 55.845 -2.08401e-07 
380 1 2.93604e-05 2.02217e-05 0.167984 55.845 -2.32815e-07 
381 1 0.0357078 -4.79836e-05 0.126686 55.845 7.90751e-07 
382 1 0.0356841 0.0357409 0.167969 55.845 -3.33195e-07 
383 1 0.0713577 0.0357666 0.126597 55.845 4.28593e-08 
384 1 0.0713785 0.0714722 0.168044 55.845 -1.57033e-08 
385 1 0.107143 0.071397 0.126596 55.845 -9.12025e-08 
386 1 0.107126 0.107143 0.168084 55.845 -4.78884e-07 
394 1 0.0713586 1.51498e-05 0.168094 55.845 1.07283e-07 
395 1 0.107102 3.60989e-05 0.126675 55.845 -1.9479e-08 
396 1 0.107031 0.0357478 0.167987 55.845 -3.43603e-07 
463 1 0 0.107143 0.0416667 55.845 -4.74545e-07 
471 1 0 0.0357143 0.0416667 55.845 -3.93475e-07 
472 1 -4.93223e-05 0.0714268 0.0854075 55.845 -4.37924e-07 
473 1 0.0357143 0.0714286 0.0416667 55.845 -1.13683e-07 
474 1 0.0357326 0.107118 0.0854271 55.845 -6.3081e-08 
475 1 0.0714286 0.107143 0.0416667 55.845 1.04981e-07 
482 1 -5.1574e-05 -1.3539e-06 0.0854368 55.845 -3.32563e-07 
483 1 0.0357143 0 0.0416667 55.845 -3.21792e-07 
484 1 0.0356266 0.0357338 0.0854197 55.845 -5.41327e-08 
485 1 0.0714286 0.0357143 0.0416667 55.845 -6.1719e-08 
486 1 0.0714046 0.0714836 0.0854832 55.845 1.86152e-07 
487 1 0.107143 0.0714286 0.0416667 55.845 -6.92843e-07 
488 1 0.10716 0.107118 0.0854172 55.845 -2.84205e-07 
496 1 0.0713528 3.39131e-05 0.0854674 55.845 -1.37898e-07 
497 1 0.107143 0 0.0416667 55.845 -3.50357e-07 
498 1 0.107164 0.0357251 0.0853791 55.845 -1.75253e-07 
567 1 0 0.0714286 0 55.845 1.89801e-07 
568 1 0.0357143 0.107143 0 55.845 7.4243e-07 
572 1 0 0 0 55.845 6.52074e-07 
573 1 0.0357143 0.0357143 0 55.845 9.24742e-07 
574 1 0.0714286 0.0714286 0 55.845 6.041e-08 
575 1 0.107143 0.107143 0 55.845 1.99751e-07 
579 1 0.0714286 0 0 55.845 6.77022e-07 
580 1 0.107143 0.0357143 0 55.845 2.858e-07 
285 1 0.142826 0.107204 0.209961 55.845 -1.46115e-08 
295 1 0.142824 0.035741 0.209849 55.845 5.28711e-07 
297 1 0.178485 0.0714466 0.209822 55.845 2.51441e-07 
299 1 0.214248 0.10719 0.209848 55.845 2.94047e-07 
307 1 0.178595 1.12499e-05 0.209849 55.845 8.00745e-07 
309 1 0.214257 0.0357441 0.209885 55.845 -2.87087e-07 
311 1 0.250003 0.0714939 0.209736 55.845 -3.27341e-08 
387 1 0.142853 0.107206 0.126661 55.845 2.33921e-07 
397 1 0.14283 0.0356954 0.126542 55.845 -3.17517e-07 
398 1 0.142745 0.0714486 0.168037 55.845 -1.12662e-07 
399 1 0.178507 0.0714689 0.126619 55.845 8.43788e-08 
400 1 0.178548 0.107169 0.168068 55.845 -9.99586e-08 
401 1 0.214273 0.107201 0.126698 55.845 3.55414e-07 
408 1 0.142818 -4.67226e-05 0.168038 55.845 -3.24896e-07 
409 1 0.178541 4.82993e-05 0.126716 55.845 2.26364e-07 
410 1 0.17849 0.0357877 0.168065 55.845 -1.40302e-07 
411 1 0.214277 0.0357197 0.126546 55.845 3.1368e-07 
412 1 0.214288 0.0714303 0.167911 55.845 -5.21104e-07 
413 1 0.25003 0.0714243 0.126576 55.845 4.00238e-07 
414 1 0.250036 0.107244 0.167882 55.845 5.33815e-07 
424 1 0.214302 0.000149552 0.167993 55.845 6.21208e-08 
426 1 0.249938 0.0358048 0.168092 55.845 -1.58694e-07 
489 1 0.142857 0.107143 0.0416667 55.845 -5.15271e-08 
499 1 0.142857 0.0357143 0.0416667 55.845 -2.73043e-07 
500 1 0.142863 0.0714341 0.0854023 55.845 -3.04431e-07 
501 1 0.178571 0.0714286 0.0416667 55.845 -3.54526e-07 
502 1 0.178561 0.107184 0.0854262 55.845 4.00933e-08 
503 1 0.214286 0.107143 0.0416667 55.845 -4.84595e-07 
510 1 0.14282 -4.55568e-06 0.0854385 55.845 4.64487e-10 
511 1 0.178571 0 0.0416667 55.845 -2.73061e-07 
512 1 0.178608 0.035732 0.0854276 55.845 1.99934e-07 
513 1 0.214286 0.0357143 0.0416667 55.845 -3.6441e-07 
514 1 0.214203 0.0714858 0.085346 55.845 1.63844e-07 
515 1 0.25 0.0714286 0.0416667 55.845 -6.72906e-07 
516 1 0.249993 0.107148 0.0853726 55.845 6.55063e-08 
526 1 0.214244 -2.58176e-05 0.0853508 55.845 4.2062e-08 
528 1 0.249968 0.0357269 0.0854054 55.845 -6.04648e-08 
581 1 0.142857 0.0714286 0 55.845 1.71555e-07 
582 1 0.178571 0.107143 0 55.845 6.06885e-07 
586 1 0.142857 0 0 55.845 3.14235e-07 
587 1 0.178571 0.0357143 0 55.845 6.5583e-07 
588 1 0.214286 0.0714286 0 55.845 4.40898e-08 
589 1 0.25 0.107143 0 55.845 4.42739e-07 
594 1 0.214286 0 0 55.845 8.25149e-07 
595 1 0.25 0.0357143 0 55.845 5.66794e-07 
313 1 0.285698 0.1072 0.209881 55.845 -2.77885e-07 
323 1 0.250025 6.03723e-05 0.209716 55.845 7.38535e-09 
325 1 0.285745 0.0357084 0.209797 55.845 -1.38361e-07 
327 1 0.321502 0.0713921 0.209891 55.845 -6.21113e-07 
329 1 0.357044 0.107104 0.210009 55.845 -1.85999e-07 
337 1 0.321475 -6.00532e-05 0.209791 55.845 -2.57897e-08 
339 1 0.357164 0.035808 0.210033 55.845 -2.49609e-07 
415 1 0.285719 0.1071 0.126583 55.845 2.08821e-07 
425 1 0.250008 -5.19188e-06 0.126619 55.845 5.23224e-07 
427 1 0.2857 0.0357101 0.126739 55.845 -2.3518e-07 
428 1 0.285729 0.071493 0.167958 55.845 4.98644e-08 
429 1 0.321428 0.0713807 0.126759 55.845 -5.36977e-08 
430 1 0.321426 0.107223 0.168045 55.845 3.34053e-07 
431 1 0.357096 0.107157 0.126717 55.845 3.08239e-07 
439 1 0.32142 -1.90332e-05 0.126488 55.845 1.74412e-07 
440 1 0.32139 0.0356781 0.168084 55.845 -1.25262e-07 
441 1 0.357152 0.0356803 0.126788 55.845 2.9468e-07 
442 1 0.35715 0.0714434 0.168076 55.845 3.48561e-07 
517 1 0.285714 0.107143 0.0416667 55.845 -5.01757e-07 
527 1 0.25 0 0.0416667 55.845 -1.69539e-07 
529 1 0.285714 0.0357143 0.0416667 55.845 -4.58984e-07 
530 1 0.285665 0.0713913 0.0853866 55.845 -5.07568e-07 
531 1 0.321429 0.0714286 0.0416667 55.845 -5.58858e-07 
532 1 0.321412 0.10715 0.0853952 55.845 -1.06666e-07 
533 1 0.357143 0.107143 0.0416667 55.845 -3.66953e-07 
603 1 0.357143 0.0714286 0 55.845 1.53436e-07 
541 1 0.321429 0 0.0416667 55.845 -4.8444e-07 
542 1 0.321471 0.035668 0.0853625 55.845 -3.16079e-08 
543 1 0.357143 0.0357143 0.0416667 55.845 -3.03822e-07 
544 1 0.357106 0.0713526 0.0853993 55.845 1.10555e-08 
602 1 0.321429 0.0357143 0 55.845 1.88048e-07 
596 1 0.285714 0.0714286 0 55.845 4.58583e-07 
597 1 0.321429 0.107143 0 55.845 4.98738e-07 
612 1 0.464286 0.0357143 0 55.845 5.0534e-07 
611 1 0.428571 0 0 55.845 5.21074e-07 
610 1 0.464286 0.107143 0 55.845 6.00092e-08 
609 1 0.428571 0.0714286 0 55.845 3.21263e-07 
608 1 0.392857 0.0357143 0 55.845 5.49659e-07 
341 1 0.392817 0.0714918 0.209985 55.845 9.08999e-08 
343 1 0.428565 0.107254 0.20988 55.845 1.04888e-07 
348 1 0.392869 1.71258e-05 0.209801 55.845 8.31792e-08 
350 1 0.428562 0.0358119 0.209826 55.845 7.12146e-08 
352 1 0.464238 0.0714294 0.209821 55.845 9.382e-08 
355 1 0.464235 2.24785e-05 0.209823 55.845 -9.59698e-08 
443 1 0.392853 0.0714764 0.126687 55.845 4.00065e-08 
444 1 0.392831 0.107198 0.168065 55.845 2.13784e-07 
445 1 0.428627 0.107143 0.126668 55.845 -3.60706e-08 
604 1 0.392857 0.107143 0 55.845 2.88074e-07 
450 1 0.392786 -5.48846e-06 0.126638 55.845 -6.9544e-08 
451 1 0.392873 0.0358103 0.168061 55.845 4.23334e-08 
452 1 0.428617 0.0358134 0.126647 55.845 -2.46959e-07 
453 1 0.428586 0.0715077 0.168082 55.845 1.72226e-08 
454 1 0.464221 0.0714292 0.126637 55.845 -6.66468e-08 
455 1 0.464327 0.107212 0.168018 55.845 -1.24411e-07 
456 1 0.428547 5.88753e-05 0.167944 55.845 2.02714e-07 
457 1 0.464299 -4.11693e-05 0.126595 55.845 1.13109e-07 
458 1 0.464292 0.0357255 0.167869 55.845 4.78673e-08 
545 1 0.392857 0.0714286 0.0416667 55.845 -2.336e-07 
546 1 0.392834 0.107142 0.0854518 55.845 -1.63376e-07 
547 1 0.428571 0.107143 0.0416667 55.845 -3.71094e-07 
552 1 0.392857 0 0.0416667 55.845 -2.23872e-07 
553 1 0.3929 0.0357388 0.0853886 55.845 7.49377e-08 
554 1 0.428571 0.0357143 0.0416667 55.845 -1.68951e-08 
555 1 0.428558 0.0714939 0.0854235 55.845 7.98885e-08 
556 1 0.464286 0.0714286 0.0416667 55.845 -2.57829e-07 
557 1 0.464279 0.107132 0.0854145 55.845 1.49909e-07 
558 1 0.428551 -3.16747e-06 0.085495 55.845 -4.6269e-07 
559 1 0.464286 0 0.0416667 55.845 -2.82574e-07 
560 1 0.464287 0.0356706 0.085372 55.845 -2.70779e-07 
255 1 -0.000104723 0.178587 0.209913 55.845 3.66132e-07 
257 1 0.0356756 0.214294 0.209859 55.845 3.7701e-07 
261 1 0.0356909 0.142814 0.209885 55.845 1.66346e-07 
263 1 0.0714199 0.178579 0.209803 55.845 4.65151e-07 
265 1 0.107125 0.21425 0.209813 55.845 -4.16753e-08 
273 1 0.107125 0.142855 0.209804 55.845 9.38472e-08 
357 1 7.70278e-05 0.178554 0.126707 55.845 2.29424e-07 
358 1 -4.40963e-06 0.214259 0.167912 55.845 -2.21846e-07 
359 1 0.0357281 0.214282 0.126634 55.845 2.44104e-08 
360 1 0.0357091 0.25005 0.168014 55.845 1.92683e-07 
362 1 -2.17435e-05 0.142856 0.168011 55.845 -2.49245e-07 
363 1 0.035729 0.142855 0.126645 55.845 2.37422e-07 
364 1 0.0356722 0.178535 0.168058 55.845 2.3245e-07 
365 1 0.0714377 0.178529 0.12658 55.845 4.75877e-08 
366 1 0.0714461 0.214278 0.168033 55.845 -2.18498e-07 
367 1 0.107169 0.21432 0.126683 55.845 -1.70266e-07 
368 1 0.107195 0.250012 0.167994 55.845 -1.10133e-07 
374 1 0.0714394 0.142803 0.168075 55.845 1.97303e-07 
375 1 0.107212 0.14292 0.126744 55.845 -1.87906e-07 
376 1 0.107144 0.178586 0.168003 55.845 7.67692e-08 
459 1 0 0.178571 0.0416667 55.845 -1.93129e-07 
460 1 8.75855e-06 0.214294 0.0853727 55.845 -1.75052e-07 
461 1 0.0357143 0.214286 0.0416667 55.845 -3.33178e-07 
462 1 0.0357188 0.24999 0.0853624 55.845 -2.06513e-07 
464 1 -7.80397e-05 0.142846 0.0854294 55.845 -5.13813e-08 
465 1 0.0357143 0.142857 0.0416667 55.845 1.59528e-07 
466 1 0.0357445 0.178552 0.0854217 55.845 -3.02998e-07 
467 1 0.0714286 0.178571 0.0416667 55.845 -3.27718e-07 
468 1 0.071407 0.214248 0.0853827 55.845 -1.01624e-07 
469 1 0.107143 0.214286 0.0416667 55.845 1.20797e-07 
470 1 0.107135 0.250093 0.0853614 55.845 2.82397e-07 
476 1 0.0714619 0.142846 0.0853128 55.845 -5.63561e-07 
477 1 0.107143 0.142857 0.0416667 55.845 -2.66289e-07 
478 1 0.107123 0.178656 0.0853932 55.845 -2.37696e-07 
561 1 0 0.214286 0 55.845 2.44631e-07 
562 1 0.0357143 0.25 0 55.845 4.38986e-07 
563 1 0 0.142857 0 55.845 5.44289e-07 
564 1 0.0357143 0.178571 0 55.845 6.18845e-08 
565 1 0.0714286 0.214286 0 55.845 2.69429e-07 
566 1 0.107143 0.25 0 55.845 6.71513e-07 
569 1 0.0714286 0.142857 0 55.845 7.04479e-07 
570 1 0.107143 0.178571 0 55.845 -1.6248e-07 
275 1 0.142888 0.178503 0.209989 55.845 2.85505e-07 
277 1 0.178589 0.214276 0.210013 55.845 2.92106e-07 
287 1 0.178535 0.142805 0.210024 55.845 6.4454e-07 
289 1 0.214289 0.178454 0.210076 55.845 3.46757e-07 
291 1 0.249999 0.214219 0.20989 55.845 1.44665e-07 
301 1 0.250057 0.142868 0.209921 55.845 -2.93573e-07 
377 1 0.142863 0.178581 0.126666 55.845 4.58132e-07 
378 1 0.142943 0.214263 0.168095 55.845 -3.54458e-07 
379 1 0.178584 0.214261 0.126689 55.845 3.69061e-08 
388 1 0.142873 0.142907 0.168084 55.845 -8.87757e-08 
389 1 0.178616 0.142931 0.126761 55.845 2.35084e-07 
390 1 0.178514 0.178577 0.168135 55.845 -2.11023e-07 
391 1 0.21432 0.17855 0.126659 55.845 1.58646e-07 
392 1 0.214293 0.214195 0.167993 55.845 -3.5066e-07 
393 1 0.249959 0.214257 0.126625 55.845 -1.26868e-07 
402 1 0.214293 0.14292 0.168047 55.845 -1.57915e-07 
403 1 0.249947 0.142934 0.126615 55.845 8.08761e-07 
404 1 0.249987 0.178634 0.16809 55.845 -4.75316e-07 
479 1 0.142857 0.178571 0.0416667 55.845 -6.14397e-07 
480 1 0.142897 0.214304 0.0853658 55.845 1.40752e-07 
481 1 0.178571 0.214286 0.0416667 55.845 -7.39778e-08 
490 1 0.14293 0.142829 0.0854125 55.845 -2.93546e-08 
491 1 0.178571 0.142857 0.0416667 55.845 -4.54167e-08 
492 1 0.178545 0.178574 0.0854952 55.845 -3.52389e-07 
493 1 0.214286 0.178571 0.0416667 55.845 -2.43917e-07 
494 1 0.214342 0.214278 0.0853128 55.845 -3.92685e-07 
495 1 0.25 0.214286 0.0416667 55.845 -2.30165e-07 
504 1 0.214275 0.142844 0.0853596 55.845 -2.30615e-07 
505 1 0.25 0.142857 0.0416667 55.845 -3.18693e-07 
506 1 0.250047 0.178567 0.085329 55.845 1.58911e-07 
571 1 0.142857 0.214286 0 55.845 5.77675e-07 
576 1 0.142857 0.142857 0 55.845 3.13109e-07 
577 1 0.178571 0.178571 0 55.845 4.03195e-07 
578 1 0.214286 0.214286 0 55.845 2.37621e-07 
583 1 0.214286 0.142857 0 55.845 5.9295e-07 
584 1 0.25 0.178571 0 55.845 2.74823e-07 
303 1 0.285758 0.178607 0.209849 55.845 -3.64708e-07 
305 1 0.321377 0.214306 0.209916 55.845 2.0476e-07 
315 1 0.321423 0.142818 0.209878 55.845 5.95025e-08 
317 1 0.357107 0.17856 0.209862 55.845 -9.03793e-09 
405 1 0.28575 0.178591 0.126717 55.845 3.58729e-07 
406 1 0.28574 0.214316 0.168114 55.845 -2.4954e-08 
407 1 0.321468 0.214334 0.126811 55.845 1.62213e-07 
416 1 0.28574 0.142853 0.168087 55.845 2.77273e-07 
417 1 0.321394 0.142917 0.126739 55.845 1.00004e-07 
418 1 0.321415 0.178519 0.168015 55.845 1.10887e-07 
419 1 0.357116 0.178581 0.126809 55.845 -4.25488e-08 
420 1 0.357114 0.214319 0.168183 55.845 -2.83754e-07 
432 1 0.357221 0.142862 0.168098 55.845 9.42121e-08 
507 1 0.285714 0.178571 0.0416667 55.845 -2.83304e-07 
508 1 0.285782 0.214314 0.08547 55.845 1.26278e-07 
509 1 0.321429 0.214286 0.0416667 55.845 -3.26576e-07 
518 1 0.285674 0.142858 0.085413 55.845 -2.81892e-07 
519 1 0.321429 0.142857 0.0416667 55.845 -4.92963e-07 
520 1 0.321427 0.178565 0.0854193 55.845 -2.74478e-07 
521 1 0.357143 0.178571 0.0416667 55.845 -2.45304e-07 
522 1 0.357186 0.214256 0.0854628 55.845 -2.66991e-07 
534 1 0.357093 0.142851 0.0854202 55.845 1.06969e-07 
585 1 0.285714 0.214286 0 55.845 2.50017e-07 
590 1 0.285714 0.142857 0 55.845 7.35491e-07 
591 1 0.321429 0.178571 0 55.845 4.6721e-07 
592 1 0.357143 0.214286 0 55.845 7.55768e-07 
598 1 0.357143 0.142857 0 55.845 7.33902e-10 
319 1 0.392832 0.214301 0.20995 55.845 -1.74264e-07 
321 1 0.428574 0.249939 0.209887 55.845 9.54227e-08 
331 1 0.392778 0.142831 0.209956 55.845 9.4564e-08 
333 1 0.428574 0.178651 0.210014 55.845 6.78986e-08 
335 1 0.464314 0.214294 0.209909 55.845 1.8455e-07 
345 1 0.464317 0.142863 0.209894 55.845 2.10674e-07 
606 1 0.464286 0.178571 0 55.845 4.22031e-07 
421 1 0.392856 0.214337 0.126679 55.845 2.22632e-07 
422 1 0.392854 0.249999 0.168259 55.845 -1.00649e-07 
423 1 0.42859 0.249984 0.126634 55.845 5.50283e-07 
433 1 0.392763 0.142843 0.126655 55.845 -4.40128e-08 
434 1 0.39288 0.178598 0.168081 55.845 -6.07321e-08 
435 1 0.428527 0.178529 0.126579 55.845 2.93774e-07 
436 1 0.428547 0.21424 0.168088 55.845 -1.69797e-07 
437 1 0.464328 0.214295 0.126593 55.845 5.6393e-07 
605 1 0.428571 0.142857 0 55.845 3.27194e-07 
446 1 0.428581 0.142864 0.168046 55.845 -3.35942e-07 
447 1 0.464295 0.142943 0.126673 55.845 1.23395e-07 
448 1 0.464169 0.178599 0.168112 55.845 -1.56817e-07 
523 1 0.392857 0.214286 0.0416667 55.845 -2.90219e-07 
524 1 0.392855 0.250008 0.0854799 55.845 8.153e-08 
525 1 0.428571 0.25 0.0416667 55.845 -4.09915e-07 
535 1 0.392857 0.142857 0.0416667 55.845 -2.69268e-07 
536 1 0.39281 0.178482 0.085436 55.845 3.15673e-08 
537 1 0.428571 0.178571 0.0416667 55.845 -6.77628e-07 
538 1 0.428509 0.214278 0.085478 55.845 1.57778e-07 
539 1 0.464286 0.214286 0.0416667 55.845 -7.9285e-08 
548 1 0.428584 0.142868 0.0853979 55.845 -5.79412e-07 
549 1 0.464286 0.142857 0.0416667 55.845 -2.56598e-07 
550 1 0.464266 0.178586 0.0854234 55.845 3.59155e-08 
593 1 0.392857 0.25 0 55.845 3.45469e-07 
599 1 0.392857 0.178571 0 55.845 7.34757e-08 
600 1 0.428571 0.214286 0 55.845 5.11266e-07 
3 1 -7.38702e-05 0.107168 0.462847 55.845 5.22413e-07 
7 1 -3.26617e-05 0.0357386 0.463078 55.845 1.00185e-07 
8 1 0.0357336 0.0715037 0.462877 55.845 4.65205e-07 
9 1 0.071396 0.107127 0.462938 55.845 8.29086e-07 
13 1 0.03574 2.4641e-05 0.46301 55.845 5.47974e-07 
14 1 0.0713914 0.0357295 0.462785 55.845 4.5997e-07 
15 1 0.107157 0.0714468 0.462906 55.845 -4.61894e-08 
20 1 0.107107 -2.2381e-05 0.462971 55.845 4.62132e-07 
55 1 9.69409e-06 0.107163 0.378495 55.845 -2.25784e-07 
63 1 -2.26622e-05 0.0357254 0.378514 55.845 7.6804e-08 
64 1 -5.95581e-05 0.0714116 0.420761 55.845 -3.15648e-07 
65 1 0.0356472 0.0714517 0.378484 55.845 -7.07381e-07 
66 1 0.0355897 0.107167 0.420684 55.845 2.00887e-07 
67 1 0.0714287 0.107157 0.378589 55.845 -3.7703e-07 
74 1 1.77949e-05 -2.16198e-05 0.42086 55.845 1.57843e-07 
75 1 0.0356978 3.3036e-05 0.378429 55.845 -1.96908e-07 
76 1 0.035651 0.0357326 0.420785 55.845 -2.02921e-07 
77 1 0.071408 0.0357674 0.378439 55.845 -8.25046e-07 
78 1 0.071348 0.0714213 0.420732 55.845 5.39756e-07 
79 1 0.107133 0.0713883 0.378402 55.845 -7.47026e-07 
80 1 0.10719 0.107203 0.420877 55.845 2.44005e-08 
88 1 0.0714273 4.51946e-05 0.42079 55.845 1.85669e-07 
89 1 0.10714 -3.48868e-05 0.378411 55.845 2.73903e-08 
90 1 0.107137 0.0358139 0.420718 55.845 -8.12819e-08 
157 1 -1.50998e-05 0.107147 0.29404 55.845 5.9053e-07 
165 1 -2.99143e-05 0.0357334 0.294108 55.845 9.91696e-07 
166 1 -2.58585e-05 0.0714732 0.336229 55.845 -4.56214e-07 
167 1 0.0356515 0.0715082 0.294104 55.845 4.88438e-07 
168 1 0.0357319 0.107203 0.336154 55.845 1.26392e-07 
169 1 0.0714632 0.107212 0.294055 55.845 1.81468e-07 
176 1 -2.83463e-05 9.87762e-05 0.336301 55.845 7.86885e-09 
177 1 0.0356549 5.04867e-07 0.294064 55.845 6.57567e-07 
178 1 0.0357371 0.0356976 0.336215 55.845 1.83212e-07 
179 1 0.0714812 0.0357593 0.294103 55.845 3.51917e-07 
180 1 0.0714789 0.0714637 0.336342 55.845 -6.65279e-07 
181 1 0.107144 0.0714718 0.294062 55.845 4.23334e-07 
182 1 0.107175 0.10711 0.33649 55.845 7.81629e-07 
190 1 0.0714142 2.4465e-05 0.336256 55.845 6.64059e-08 
191 1 0.107237 8.2926e-05 0.294213 55.845 4.91338e-07 
192 1 0.107258 0.0356869 0.336276 55.845 1.11077e-07 
268 1 -2.3416e-05 0.0715094 0.251984 55.845 -6.27086e-07 
270 1 0.0357234 0.107162 0.251988 55.845 -4.41517e-07 
278 1 5.90195e-05 1.22582e-05 0.252003 55.845 -1.1596e-06 
280 1 0.0357337 0.0357601 0.252151 55.845 -3.06942e-07 
282 1 0.0713722 0.0714912 0.252117 55.845 -2.75347e-07 
284 1 0.107111 0.107155 0.252009 55.845 -4.47486e-07 
292 1 0.071511 3.47575e-06 0.252161 55.845 -6.7451e-07 
294 1 0.107159 0.0358181 0.252044 55.845 -4.58045e-07 
16 1 0.142853 0.107148 0.463128 55.845 -9.64329e-08 
21 1 0.142827 0.0356952 0.463011 55.845 -1.85455e-07 
22 1 0.1786 0.0714009 0.463021 55.845 4.75698e-07 
23 1 0.214212 0.107138 0.463027 55.845 2.53013e-08 
27 1 0.178565 7.3827e-05 0.462982 55.845 1.25021e-07 
28 1 0.214265 0.0357262 0.463054 55.845 6.02285e-07 
29 1 0.24997 0.0713931 0.462966 55.845 2.32649e-07 
81 1 0.142836 0.107088 0.378578 55.845 -1.88203e-08 
91 1 0.142836 0.0357564 0.378467 55.845 -1.13117e-07 
92 1 0.142881 0.0714468 0.420708 55.845 -2.22949e-08 
93 1 0.1785 0.071416 0.378465 55.845 -3.28957e-07 
94 1 0.178537 0.107179 0.420761 55.845 2.43053e-07 
95 1 0.214227 0.10714 0.378487 55.845 -2.45214e-07 
102 1 0.142817 -2.48431e-05 0.420748 55.845 5.18018e-08 
103 1 0.178555 2.12677e-05 0.378499 55.845 -2.75726e-07 
104 1 0.178532 0.0357231 0.420739 55.845 3.41521e-07 
105 1 0.214224 0.0357727 0.378601 55.845 -3.78665e-07 
106 1 0.214235 0.0714531 0.420775 55.845 5.70559e-08 
107 1 0.24986 0.0713805 0.378506 55.845 -1.15387e-07 
108 1 0.249932 0.107219 0.420744 55.845 1.14982e-07 
118 1 0.21422 -3.59075e-05 0.420821 55.845 -1.82996e-09 
120 1 0.249952 0.0357302 0.420835 55.845 1.23521e-07 
183 1 0.142839 0.107207 0.294057 55.845 4.50036e-07 
193 1 0.142857 0.0357317 0.293994 55.845 3.60285e-07 
194 1 0.14286 0.0714657 0.336289 55.845 2.22543e-07 
195 1 0.178659 0.0714843 0.294018 55.845 -1.28575e-07 
196 1 0.178562 0.107186 0.336349 55.845 -1.52689e-07 
197 1 0.21427 0.107144 0.294128 55.845 6.2113e-07 
204 1 0.142895 -2.85809e-05 0.336259 55.845 2.83019e-07 
205 1 0.178563 -6.55252e-05 0.294037 55.845 2.72634e-07 
206 1 0.178584 0.0357262 0.336192 55.845 -8.08949e-07 
207 1 0.214308 0.0357117 0.294034 55.845 2.33199e-07 
208 1 0.214291 0.0714076 0.336282 55.845 -7.43039e-07 
209 1 0.250007 0.0714957 0.294072 55.845 1.62801e-07 
210 1 0.25002 0.107176 0.336378 55.845 1.09586e-07 
220 1 0.214195 6.07229e-05 0.33629 55.845 3.86806e-07 
222 1 0.250002 0.035758 0.336329 55.845 1.96716e-07 
296 1 0.142856 0.0714243 0.252043 55.845 -4.06917e-07 
298 1 0.178499 0.1071 0.252055 55.845 -4.17977e-07 
306 1 0.142841 4.24811e-05 0.251893 55.845 -8.50776e-07 
308 1 0.178596 0.0357396 0.251956 55.845 -3.33403e-07 
310 1 0.214262 0.0714846 0.252021 55.845 -1.56516e-07 
312 1 0.249936 0.107163 0.251947 55.845 -3.89873e-07 
322 1 0.21421 2.1425e-05 0.251941 55.845 -2.96499e-07 
324 1 0.25004 0.035757 0.252023 55.845 -3.68152e-07 
30 1 0.28565 0.10717 0.462991 55.845 5.48371e-07 
35 1 0.250024 -5.96316e-06 0.463033 55.845 -4.61429e-08 
36 1 0.285703 0.0356773 0.463068 55.845 -1.56981e-07 
37 1 0.321458 0.071357 0.46296 55.845 9.0489e-07 
38 1 0.357136 0.107152 0.463023 55.845 -2.21469e-07 
42 1 0.32145 4.27692e-05 0.462931 55.845 5.32676e-07 
43 1 0.357151 0.0356922 0.463032 55.845 5.99926e-08 
109 1 0.2856 0.10715 0.37864 55.845 -4.96661e-07 
119 1 0.249887 1.87277e-05 0.378501 55.845 -5.02756e-07 
121 1 0.285675 0.0357142 0.378509 55.845 5.62024e-08 
122 1 0.28566 0.0713919 0.420837 55.845 9.35511e-07 
123 1 0.321422 0.0713872 0.378617 55.845 -2.5437e-07 
124 1 0.321432 0.107108 0.420758 55.845 -1.42616e-07 
125 1 0.357047 0.107151 0.378431 55.845 -8.81376e-07 
133 1 0.321452 7.51602e-05 0.378493 55.845 -6.50853e-07 
134 1 0.321339 0.0357363 0.420829 55.845 4.0575e-07 
135 1 0.357204 0.0356913 0.378584 55.845 -9.92213e-07 
136 1 0.357122 0.0714164 0.420724 55.845 -2.59327e-07 
211 1 0.285698 0.107218 0.29407 55.845 -1.05926e-07 
221 1 0.249925 1.25326e-05 0.294017 55.845 2.32192e-07 
223 1 0.285765 0.0357559 0.294047 55.845 -1.44508e-07 
224 1 0.28569 0.071491 0.336266 55.845 -1.54743e-07 
225 1 0.321364 0.0714159 0.294095 55.845 1.14258e-07 
226 1 0.321401 0.107144 0.336223 55.845 2.18036e-07 
227 1 0.357124 0.10716 0.294036 55.845 4.30757e-07 
235 1 0.321458 5.75392e-05 0.29417 55.845 6.1899e-07 
236 1 0.321393 0.0357982 0.336434 55.845 2.79711e-07 
237 1 0.357201 0.035697 0.294205 55.845 4.94868e-08 
238 1 0.357147 0.0714389 0.33629 55.845 5.63574e-07 
326 1 0.285705 0.0714764 0.25198 55.845 -6.18703e-07 
328 1 0.321342 0.107142 0.251996 55.845 -4.15555e-08 
338 1 0.321431 0.035697 0.252035 55.845 -2.73379e-07 
340 1 0.357108 0.0714272 0.252153 55.845 -1.19328e-07 
44 1 0.392836 0.0714565 0.46291 55.845 -3.84812e-07 
45 1 0.42865 0.107141 0.463048 55.845 5.60125e-07 
47 1 0.392807 -1.53235e-05 0.462988 55.845 6.28004e-07 
48 1 0.428573 0.0357357 0.462924 55.845 -1.72689e-07 
49 1 0.464251 0.0714042 0.463021 55.845 -2.73448e-07 
50 1 0.464239 5.66516e-05 0.463007 55.845 2.86255e-08 
137 1 0.392884 0.0714533 0.378494 55.845 -3.01232e-07 
138 1 0.392827 0.107132 0.420685 55.845 3.47937e-07 
139 1 0.428621 0.107121 0.378507 55.845 -7.39591e-07 
144 1 0.392894 3.68607e-07 0.378563 55.845 -7.64716e-07 
145 1 0.392885 0.0356796 0.42082 55.845 5.90656e-07 
146 1 0.428584 0.035672 0.378441 55.845 -5.09837e-07 
147 1 0.428545 0.0714212 0.420792 55.845 3.82636e-07 
148 1 0.464311 0.0714339 0.378513 55.845 -9.66462e-07 
149 1 0.464249 0.107149 0.420757 55.845 4.96204e-07 
150 1 0.428574 2.10174e-05 0.42077 55.845 7.1708e-07 
151 1 0.464251 7.73468e-05 0.378486 55.845 -6.41637e-07 
152 1 0.46428 0.0358148 0.420812 55.845 2.53707e-07 
239 1 0.392895 0.0714524 0.294105 55.845 -4.05129e-07 
240 1 0.392794 0.107207 0.336302 55.845 3.6553e-07 
241 1 0.428588 0.107198 0.294136 55.845 -5.02138e-07 
246 1 0.392882 6.72968e-05 0.294083 55.845 -5.70397e-08 
247 1 0.392872 0.0357354 0.336323 55.845 4.22441e-07 
248 1 0.428581 0.0356809 0.294027 55.845 -3.93262e-07 
249 1 0.428588 0.071502 0.336271 55.845 3.23686e-07 
250 1 0.464294 0.0714672 0.294086 55.845 -2.19675e-07 
251 1 0.464245 0.107183 0.336301 55.845 2.25393e-07 
252 1 0.428578 -3.64297e-05 0.336292 55.845 9.74214e-08 
253 1 0.464241 -3.43681e-05 0.294119 55.845 1.46429e-07 
254 1 0.46431 0.0357367 0.336176 55.845 6.99693e-07 
342 1 0.392874 0.10715 0.252082 55.845 -7.27735e-07 
349 1 0.392814 0.0357225 0.252017 55.845 -7.46254e-08 
351 1 0.428548 0.0714447 0.252054 55.845 -1.27533e-07 
353 1 0.464285 0.107194 0.252028 55.845 -1.11926e-07 
354 1 0.428548 5.89209e-05 0.251976 55.845 -9.01273e-08 
356 1 0.464299 0.0357094 0.251989 55.845 -4.74091e-08 
1 1 8.74287e-06 0.178572 0.46296 55.845 9.24376e-07 
2 1 0.0356702 0.214299 0.46305 55.845 7.47618e-07 
4 1 0.0356927 0.142877 0.462986 55.845 1.95526e-07 
5 1 0.0714413 0.178571 0.463098 55.845 3.87386e-07 
6 1 0.107157 0.214324 0.462971 55.845 1.56024e-08 
10 1 0.107106 0.142884 0.463073 55.845 6.87358e-07 
51 1 -3.4774e-05 0.17858 0.378346 55.845 -8.32982e-07 
52 1 -3.57755e-05 0.214215 0.420824 55.845 2.78517e-07 
53 1 0.0356674 0.21423 0.378473 55.845 -4.25365e-07 
54 1 0.0357716 0.250021 0.420713 55.845 -2.34428e-07 
56 1 -7.64982e-05 0.142847 0.42062 55.845 -8.58206e-08 
57 1 0.0357384 0.142819 0.37846 55.845 -2.41263e-07 
58 1 0.0357319 0.178625 0.420742 55.845 3.17508e-07 
59 1 0.0714283 0.178609 0.378445 55.845 -4.00147e-07 
60 1 0.0713559 0.214324 0.420726 55.845 8.82844e-08 
61 1 0.107144 0.214338 0.378551 55.845 -4.92584e-07 
62 1 0.107143 0.250094 0.420935 55.845 1.14088e-07 
68 1 0.0714519 0.142902 0.42078 55.845 2.37234e-07 
69 1 0.107157 0.142906 0.378527 55.845 -4.81512e-07 
70 1 0.107058 0.178592 0.420818 55.845 1.62656e-07 
153 1 -2.19826e-05 0.178567 0.293963 55.845 -6.45007e-08 
154 1 -0.000109236 0.214288 0.336165 55.845 -1.84727e-07 
155 1 0.035606 0.214238 0.294106 55.845 9.91679e-08 
156 1 0.0357351 0.249942 0.336312 55.845 -9.26321e-08 
158 1 3.972e-05 0.142916 0.336277 55.845 -2.11404e-07 
159 1 0.0356832 0.142884 0.293926 55.845 3.04098e-07 
160 1 0.0356854 0.178565 0.336247 55.845 9.6537e-08 
161 1 0.0714375 0.178549 0.294094 55.845 -4.46624e-08 
162 1 0.0713634 0.214307 0.336336 55.845 5.5656e-08 
163 1 0.107126 0.214277 0.294059 55.845 3.81157e-07 
164 1 0.107118 0.250011 0.336357 55.845 1.52033e-07 
170 1 0.0714493 0.142892 0.336322 55.845 7.12201e-07 
171 1 0.107097 0.142873 0.294062 55.845 2.62629e-07 
172 1 0.107063 0.178606 0.336321 55.845 1.0283e-07 
256 1 4.21465e-05 0.214303 0.252071 55.845 -7.07224e-07 
258 1 0.0356993 0.25001 0.252088 55.845 -5.69471e-07 
260 1 -6.955e-05 0.142845 0.251978 55.845 -2.79277e-07 
262 1 0.0357088 0.178513 0.251894 55.845 -3.75213e-07 
264 1 0.0714186 0.214176 0.251975 55.845 -4.69546e-07 
266 1 0.10712 0.249977 0.252112 55.845 -7.73476e-08 
272 1 0.0713996 0.14286 0.251902 55.845 -6.25721e-07 
274 1 0.107139 0.178571 0.252013 55.845 -6.08746e-07 
11 1 0.142827 0.178703 0.463058 55.845 1.17898e-07 
12 1 0.178609 0.214334 0.462999 55.845 -1.75762e-07 
17 1 0.178575 0.142918 0.463021 55.845 -5.66532e-08 
18 1 0.21429 0.178676 0.463027 55.845 4.7888e-07 
19 1 0.2499 0.214341 0.463029 55.845 1.14654e-07 
24 1 0.249999 0.142847 0.463002 55.845 1.80934e-07 
71 1 0.142787 0.178646 0.378612 55.845 -5.49104e-07 
72 1 0.142838 0.21431 0.420792 55.845 -2.215e-07 
73 1 0.178464 0.214285 0.378581 55.845 -2.06438e-07 
82 1 0.142858 0.142924 0.420841 55.845 3.19008e-07 
83 1 0.178534 0.142963 0.378561 55.845 -6.40966e-08 
84 1 0.17852 0.178596 0.420815 55.845 6.30302e-07 
85 1 0.214306 0.178588 0.378613 55.845 -5.73721e-07 
86 1 0.214204 0.214357 0.420813 55.845 6.54332e-07 
87 1 0.249967 0.214319 0.378605 55.845 -1.13829e-06 
96 1 0.214252 0.142873 0.420776 55.845 4.11655e-07 
97 1 0.250005 0.142918 0.378611 55.845 -7.035e-07 
98 1 0.249987 0.178592 0.420893 55.845 2.59644e-07 
173 1 0.142866 0.178599 0.294182 55.845 -2.77878e-08 
174 1 0.142809 0.214293 0.336324 55.845 2.61393e-08 
175 1 0.178518 0.214272 0.294193 55.845 7.12539e-08 
184 1 0.142873 0.142875 0.336261 55.845 2.00482e-07 
185 1 0.178604 0.142882 0.294062 55.845 3.60091e-08 
186 1 0.178576 0.17858 0.336297 55.845 -1.72186e-07 
187 1 0.21429 0.178528 0.294223 55.845 4.62788e-08 
188 1 0.214275 0.21431 0.336413 55.845 1.88857e-07 
189 1 0.250013 0.214263 0.294206 55.845 3.48555e-07 
198 1 0.214313 0.142811 0.336362 55.845 1.99747e-07 
199 1 0.249991 0.142906 0.294039 55.845 4.32476e-07 
200 1 0.25001 0.17861 0.336404 55.845 -1.71058e-07 
276 1 0.142833 0.214279 0.252009 55.845 -1.47552e-07 
286 1 0.142873 0.142875 0.252055 55.845 -5.54357e-07 
288 1 0.178638 0.178588 0.252056 55.845 -3.57272e-07 
290 1 0.214333 0.214234 0.252082 55.845 -2.52423e-07 
300 1 0.214306 0.142868 0.252094 55.845 -2.498e-07 
302 1 0.249986 0.178619 0.252022 55.845 -2.61375e-07 
25 1 0.285679 0.178601 0.462971 55.845 3.86969e-07 
26 1 0.321394 0.214272 0.462916 55.845 1.70388e-07 
31 1 0.321414 0.142812 0.463029 55.845 1.89605e-07 
32 1 0.35713 0.17856 0.462928 55.845 4.61739e-07 
99 1 0.285759 0.178579 0.378562 55.845 -5.4679e-07 
100 1 0.285635 0.214355 0.420811 55.845 1.71343e-07 
101 1 0.321425 0.214257 0.378432 55.845 -3.92421e-07 
110 1 0.285654 0.142894 0.420837 55.845 8.42011e-09 
111 1 0.321399 0.142912 0.378572 55.845 -6.88805e-07 
112 1 0.321444 0.178579 0.420868 55.845 9.97154e-07 
113 1 0.357211 0.178628 0.378476 55.845 -4.44703e-07 
114 1 0.357125 0.214268 0.420773 55.845 -3.24703e-08 
126 1 0.357153 0.142815 0.420826 55.845 3.12763e-07 
201 1 0.285695 0.178591 0.294086 55.845 3.30259e-07 
202 1 0.285746 0.214371 0.336382 55.845 1.15434e-07 
203 1 0.321411 0.214263 0.29397 55.845 -2.24115e-07 
212 1 0.285707 0.142891 0.336306 55.845 3.54245e-07 
213 1 0.321396 0.14284 0.294097 55.845 5.89677e-07 
214 1 0.321445 0.178623 0.336221 55.845 3.09032e-07 
215 1 0.357195 0.178614 0.294041 55.845 -4.62666e-08 
216 1 0.357079 0.214298 0.336245 55.845 1.00225e-07 