ITEM: TIMESTEP
6600
ITEM: NUMBER OF ATOMS
5880
ITEM: BOX BOUNDS pp pp ff
-27.9085 27.9085
-27.9085 27.9085
0 34.092
ITEM: ATOMS id type xs ys zs mass q 
259 1 4.9593e-05 0.107091 0.211625 55.845 -4.89602e-08 
267 1 6.25156e-05 0.0356908 0.211623 55.845 -3.44952e-09 
269 1 0.0357007 0.0714966 0.211684 55.845 -7.8278e-08 
271 1 0.0715025 0.107124 0.211693 55.845 -3.20776e-08 
279 1 0.0357283 -4.82692e-06 0.211734 55.845 -5.28074e-08 
281 1 0.0713735 0.0358059 0.211704 55.845 -1.04955e-07 
283 1 0.107194 0.071403 0.211591 55.845 -5.97745e-08 
293 1 0.107108 -3.14528e-05 0.211654 55.845 -1.66044e-07 
361 1 -4.10252e-05 0.107174 0.127833 55.845 4.75605e-07 
369 1 -5.67584e-05 0.0356562 0.127721 55.845 3.09e-07 
370 1 -6.59413e-05 0.071348 0.170333 55.845 -2.70878e-07 
371 1 0.0357041 0.0713599 0.127802 55.845 2.6775e-07 
372 1 0.0357695 0.107063 0.17032 55.845 -2.40736e-07 
373 1 0.0714874 0.107126 0.127756 55.845 3.47127e-07 
380 1 -8.44953e-05 -3.44646e-06 0.170283 55.845 -1.21225e-07 
381 1 0.0357285 4.54489e-05 0.127725 55.845 3.35083e-07 
382 1 0.0356569 0.0357497 0.170401 55.845 -1.69652e-07 
383 1 0.0713547 0.0357816 0.127679 55.845 2.93393e-07 
384 1 0.0714786 0.0713894 0.170428 55.845 -4.6053e-08 
385 1 0.107229 0.0714722 0.127665 55.845 2.86609e-07 
386 1 0.107215 0.107109 0.170433 55.845 -4.77918e-08 
394 1 0.071436 -1.19879e-05 0.170407 55.845 -1.62076e-07 
395 1 0.107011 -3.91233e-05 0.127736 55.845 2.95124e-07 
396 1 0.10707 0.0356252 0.170368 55.845 -4.64924e-08 
463 1 0 0.107143 0.0416667 55.845 -1.00112e-07 
471 1 0 0.0357143 0.0416667 55.845 -8.24234e-08 
472 1 -1.94206e-05 0.0714213 0.0843768 55.845 -1.12271e-07 
473 1 0.0357143 0.0714286 0.0416667 55.845 -5.87823e-08 
474 1 0.0357555 0.107144 0.0843095 55.845 -4.33852e-08 
475 1 0.0714286 0.107143 0.0416667 55.845 -1.44188e-07 
482 1 -1.19903e-05 8.20111e-05 0.0841499 55.845 -6.22571e-08 
483 1 0.0357143 0 0.0416667 55.845 -5.32009e-08 
484 1 0.0357445 0.035773 0.0841562 55.845 -5.56012e-08 
485 1 0.0714286 0.0357143 0.0416667 55.845 -1.27056e-07 
486 1 0.0714337 0.0714421 0.0842066 55.845 3.32334e-08 
487 1 0.107143 0.0714286 0.0416667 55.845 -1.82381e-07 
488 1 0.107181 0.107131 0.0841534 55.845 1.07397e-09 
496 1 0.0714116 3.50726e-05 0.0841931 55.845 -4.66477e-08 
497 1 0.107143 0 0.0416667 55.845 -5.58323e-08 
498 1 0.10721 0.0358436 0.0842561 55.845 1.07044e-07 
567 1 0 0.0714286 0 55.845 1.03951e-08 
568 1 0.0357143 0.107143 0 55.845 -3.03264e-08 
572 1 0 0 0 55.845 -1.34343e-07 
573 1 0.0357143 0.0357143 0 55.845 2.35422e-08 
574 1 0.0714286 0.0714286 0 55.845 -3.52046e-08 
575 1 0.107143 0.107143 0 55.845 -8.645e-08 
579 1 0.0714286 0 0 55.845 1.01812e-08 
580 1 0.107143 0.0357143 0 55.845 -2.88951e-08 
285 1 0.142922 0.10717 0.211519 55.845 -2.34922e-08 
295 1 0.142948 0.035766 0.211587 55.845 -9.86372e-08 
297 1 0.178577 0.0713863 0.211704 55.845 -2.16557e-08 
299 1 0.214264 0.107156 0.211829 55.845 -1.12359e-07 
307 1 0.178627 -4.0032e-07 0.211563 55.845 -5.2428e-08 
309 1 0.214287 0.0357316 0.211614 55.845 -7.20061e-08 
311 1 0.249993 0.071422 0.211625 55.845 -5.06462e-08 
387 1 0.142921 0.10708 0.127714 55.845 2.24997e-07 
397 1 0.142914 0.0356914 0.127736 55.845 3.24602e-07 
398 1 0.142995 0.0714013 0.170219 55.845 7.72679e-08 
399 1 0.178568 0.0714037 0.127683 55.845 2.45838e-07 
400 1 0.178576 0.107128 0.170336 55.845 8.87815e-08 
401 1 0.214276 0.107102 0.127766 55.845 2.26623e-07 
408 1 0.142825 -1.07246e-05 0.170298 55.845 -2.08823e-07 
409 1 0.178581 -5.12631e-06 0.127706 55.845 4.08973e-07 
410 1 0.178638 0.0357288 0.170291 55.845 -5.90917e-09 
411 1 0.214327 0.0356445 0.127845 55.845 3.21694e-07 
412 1 0.214276 0.0714296 0.170316 55.845 -1.36095e-10 
413 1 0.250025 0.0714746 0.127934 55.845 2.82481e-07 
414 1 0.250006 0.107188 0.170479 55.845 -8.02775e-08 
424 1 0.214346 -1.22046e-05 0.170294 55.845 -1.25388e-07 
426 1 0.250022 0.035679 0.170349 55.845 -1.39895e-08 
489 1 0.142857 0.107143 0.0416667 55.845 -2.45789e-07 
499 1 0.142857 0.0357143 0.0416667 55.845 -1.04173e-07 
500 1 0.142924 0.0713355 0.084319 55.845 1.2005e-07 
501 1 0.178571 0.0714286 0.0416667 55.845 -1.59702e-07 
502 1 0.178643 0.107107 0.0843193 55.845 7.41769e-08 
503 1 0.214286 0.107143 0.0416667 55.845 -2.45987e-07 
510 1 0.142803 7.99576e-05 0.084313 55.845 3.51398e-08 
511 1 0.178571 0 0.0416667 55.845 -1.91509e-07 
512 1 0.178594 0.0357337 0.084294 55.845 -1.78351e-09 
513 1 0.214286 0.0357143 0.0416667 55.845 -1.71285e-07 
514 1 0.21434 0.0713187 0.0842643 55.845 -1.37468e-08 
515 1 0.25 0.0714286 0.0416667 55.845 -2.37156e-07 
516 1 0.249982 0.1071 0.0842449 55.845 -1.19057e-07 
526 1 0.214239 3.05642e-06 0.0842245 55.845 -1.1399e-07 
528 1 0.250012 0.0356477 0.0842802 55.845 -8.37372e-08 
581 1 0.142857 0.0714286 0 55.845 -7.45258e-08 
582 1 0.178571 0.107143 0 55.845 -3.25468e-08 
586 1 0.142857 0 0 55.845 1.087e-07 
587 1 0.178571 0.0357143 0 55.845 -4.28668e-08 
588 1 0.214286 0.0714286 0 55.845 -8.56909e-08 
589 1 0.25 0.107143 0 55.845 -1.89105e-07 
594 1 0.214286 0 0 55.845 -8.91482e-08 
595 1 0.25 0.0357143 0 55.845 -1.16702e-07 
313 1 0.28577 0.107126 0.211847 55.845 -1.27196e-07 
323 1 0.250108 -5.47469e-05 0.211851 55.845 -6.34125e-08 
325 1 0.285657 0.0358306 0.211591 55.845 -6.86768e-08 
327 1 0.321512 0.0715397 0.211721 55.845 -8.92328e-08 
329 1 0.35717 0.10722 0.211728 55.845 -2.07957e-08 
337 1 0.321462 -1.91305e-05 0.211626 55.845 2.01674e-08 
339 1 0.35717 0.0357263 0.211554 55.845 -2.33189e-08 
415 1 0.285732 0.107146 0.12778 55.845 1.85437e-07 
425 1 0.25003 -3.86344e-06 0.127565 55.845 4.74569e-07 
427 1 0.28573 0.0356635 0.127773 55.845 2.67718e-07 
428 1 0.285791 0.0714304 0.170381 55.845 -4.68406e-08 
429 1 0.321408 0.071466 0.127779 55.845 1.23326e-07 
430 1 0.321532 0.107165 0.17041 55.845 -1.51987e-08 
431 1 0.357197 0.107201 0.127877 55.845 2.76444e-07 
439 1 0.321371 4.78813e-05 0.127727 55.845 3.57948e-07 
440 1 0.321458 0.0357074 0.170371 55.845 -5.44583e-08 
441 1 0.357173 0.0357719 0.127719 55.845 2.36571e-07 
442 1 0.35723 0.0714412 0.170206 55.845 -1.1321e-08 
517 1 0.285714 0.107143 0.0416667 55.845 -2.24021e-07 
527 1 0.25 0 0.0416667 55.845 -2.42259e-07 
529 1 0.285714 0.0357143 0.0416667 55.845 -2.74732e-07 
530 1 0.285662 0.0714427 0.0843116 55.845 -9.50682e-08 
531 1 0.321429 0.0714286 0.0416667 55.845 -2.64152e-07 
532 1 0.321429 0.107141 0.0843085 55.845 -1.38288e-08 
533 1 0.357143 0.107143 0.0416667 55.845 -1.68063e-07 
603 1 0.357143 0.0714286 0 55.845 -2.09966e-07 
541 1 0.321429 0 0.0416667 55.845 -2.68744e-07 
542 1 0.321443 0.0357953 0.084286 55.845 -1.24792e-07 
543 1 0.357143 0.0357143 0.0416667 55.845 -3.30436e-07 
544 1 0.35719 0.0714316 0.0843325 55.845 -5.79589e-08 
602 1 0.321429 0.0357143 0 55.845 -2.84898e-07 
596 1 0.285714 0.0714286 0 55.845 -2.1772e-07 
597 1 0.321429 0.107143 0 55.845 -1.91185e-07 
612 1 0.464286 0.0357143 0 55.845 -7.49666e-08 
611 1 0.428571 0 0 55.845 -1.60954e-07 
610 1 0.464286 0.107143 0 55.845 -1.16567e-07 
609 1 0.428571 0.0714286 0 55.845 -2.09761e-07 
608 1 0.392857 0.0357143 0 55.845 -1.32279e-07 
341 1 0.392849 0.0714474 0.211684 55.845 3.02143e-08 
343 1 0.428653 0.107144 0.211675 55.845 1.97478e-08 
348 1 0.392842 4.31436e-06 0.211732 55.845 -2.54534e-08 
350 1 0.428619 0.0356838 0.211731 55.845 7.66736e-08 
352 1 0.46419 0.0714901 0.211769 55.845 2.42348e-08 
355 1 0.464367 -2.29585e-05 0.21161 55.845 1.15033e-07 
443 1 0.392798 0.0714801 0.127689 55.845 3.19828e-07 
444 1 0.392936 0.1073 0.170365 55.845 9.08191e-08 
445 1 0.428521 0.107165 0.127774 55.845 4.4178e-07 
604 1 0.392857 0.107143 0 55.845 -1.55016e-07 
450 1 0.392931 -1.15182e-05 0.127749 55.845 3.44239e-07 
451 1 0.392982 0.0357451 0.170395 55.845 -1.69773e-10 
452 1 0.42863 0.0357332 0.127672 55.845 3.89894e-07 
453 1 0.428609 0.0715057 0.170355 55.845 -2.55964e-08 
454 1 0.464274 0.071342 0.127689 55.845 4.18336e-07 
455 1 0.464407 0.107085 0.170402 55.845 -1.24363e-07 
456 1 0.428635 -8.7649e-06 0.17028 55.845 -1.53832e-07 
457 1 0.464318 -2.43996e-05 0.127748 55.845 3.97465e-07 
458 1 0.464253 0.0356964 0.170336 55.845 -1.10611e-07 
545 1 0.392857 0.0714286 0.0416667 55.845 -2.01194e-07 
546 1 0.392835 0.107104 0.0843049 55.845 8.61736e-08 
547 1 0.428571 0.107143 0.0416667 55.845 -2.67845e-07 
552 1 0.392857 0 0.0416667 55.845 -1.97934e-07 
553 1 0.392951 0.035737 0.0843003 55.845 -5.79642e-08 
554 1 0.428571 0.0357143 0.0416667 55.845 -1.41924e-07 
555 1 0.428607 0.0714236 0.0842086 55.845 -8.18447e-08 
556 1 0.464286 0.0714286 0.0416667 55.845 -1.32522e-07 
557 1 0.464257 0.107139 0.0842503 55.845 -3.95683e-08 
558 1 0.428605 1.33313e-05 0.0844468 55.845 -1.18795e-07 
559 1 0.464286 0 0.0416667 55.845 -1.54574e-07 
560 1 0.464343 0.0356639 0.0842557 55.845 -1.35254e-07 
255 1 1.58331e-05 0.178589 0.21163 55.845 -2.86109e-08 
257 1 0.0357684 0.214324 0.211734 55.845 -7.64343e-08 
261 1 0.0357188 0.142911 0.211467 55.845 1.45475e-08 
263 1 0.0714117 0.178534 0.211721 55.845 -8.3799e-08 
265 1 0.107166 0.21429 0.211846 55.845 -1.40688e-07 
273 1 0.107112 0.142892 0.211812 55.845 -5.86774e-08 
357 1 2.93837e-06 0.178587 0.127772 55.845 4.97881e-07 
358 1 2.3664e-05 0.214258 0.170353 55.845 -1.70855e-07 
359 1 0.0358031 0.214277 0.127772 55.845 4.08106e-07 
360 1 0.035706 0.250011 0.170259 55.845 -9.37854e-08 
362 1 -3.54019e-05 0.142917 0.170318 55.845 -3.30022e-07 
363 1 0.0356744 0.142828 0.127755 55.845 4.80564e-07 
364 1 0.0357698 0.178581 0.170476 55.845 -1.45072e-07 
365 1 0.0714413 0.178517 0.127871 55.845 4.02208e-07 
366 1 0.0714098 0.214348 0.170396 55.845 -1.28241e-07 
367 1 0.107232 0.214238 0.127737 55.845 3.85627e-07 
368 1 0.107076 0.249948 0.17024 55.845 -1.23331e-07 
374 1 0.0715435 0.142819 0.170348 55.845 -1.25348e-07 
375 1 0.107176 0.142814 0.127654 55.845 2.96756e-07 
376 1 0.10706 0.17854 0.170409 55.845 -1.10758e-07 
459 1 0 0.178571 0.0416667 55.845 -3.03668e-07 
460 1 9.35595e-06 0.214239 0.0842882 55.845 -8.07147e-08 
461 1 0.0357143 0.214286 0.0416667 55.845 -2.86251e-07 
462 1 0.0356968 0.249902 0.0843361 55.845 -4.48009e-08 
464 1 -5.45813e-05 0.142797 0.0843181 55.845 -1.7579e-07 
465 1 0.0357143 0.142857 0.0416667 55.845 -1.9356e-07 
466 1 0.0357159 0.178559 0.0842809 55.845 -1.2137e-07 
467 1 0.0714286 0.178571 0.0416667 55.845 -1.98501e-07 
468 1 0.0714722 0.214233 0.0842747 55.845 -9.42449e-08 
469 1 0.107143 0.214286 0.0416667 55.845 -3.82961e-07 
470 1 0.107191 0.249941 0.0843653 55.845 -1.10747e-07 
476 1 0.0714162 0.14271 0.0842051 55.845 4.0505e-08 
477 1 0.107143 0.142857 0.0416667 55.845 -2.32928e-07 
478 1 0.107114 0.178545 0.0842562 55.845 -3.9545e-08 
561 1 0 0.214286 0 55.845 -1.54254e-07 
562 1 0.0357143 0.25 0 55.845 -8.73627e-08 
563 1 0 0.142857 0 55.845 -1.61079e-07 
564 1 0.0357143 0.178571 0 55.845 -1.38311e-07 
565 1 0.0714286 0.214286 0 55.845 -1.04056e-07 
566 1 0.107143 0.25 0 55.845 -1.41609e-07 
569 1 0.0714286 0.142857 0 55.845 -5.8891e-08 
570 1 0.107143 0.178571 0 55.845 -4.54028e-08 
275 1 0.142804 0.178492 0.211674 55.845 -1.13933e-07 
277 1 0.178546 0.214326 0.211798 55.845 -9.48005e-08 
287 1 0.178487 0.14284 0.211851 55.845 -1.34474e-07 
289 1 0.21427 0.178578 0.211641 55.845 -1.14504e-07 
291 1 0.250046 0.214312 0.211729 55.845 -8.61209e-08 
301 1 0.249922 0.142984 0.211685 55.845 -1.50164e-07 
377 1 0.142853 0.17855 0.127687 55.845 3.00257e-07 
378 1 0.142803 0.214222 0.170416 55.845 -1.3837e-07 
379 1 0.178581 0.214244 0.12783 55.845 4.15419e-07 
388 1 0.142808 0.142854 0.170246 55.845 -8.86871e-09 
389 1 0.178586 0.142846 0.127795 55.845 3.10996e-07 
390 1 0.178508 0.178655 0.170305 55.845 -1.46509e-07 
391 1 0.214321 0.178506 0.127773 55.845 3.29378e-07 
392 1 0.214276 0.21424 0.170438 55.845 -3.22164e-07 
393 1 0.250001 0.214209 0.127698 55.845 4.40832e-07 
402 1 0.214241 0.142887 0.170456 55.845 -1.28671e-07 
403 1 0.250054 0.142813 0.1277 55.845 2.64505e-07 
404 1 0.250083 0.178566 0.170422 55.845 -1.4616e-07 
479 1 0.142857 0.178571 0.0416667 55.845 -3.00251e-07 
480 1 0.142834 0.21428 0.0843272 55.845 -1.40802e-07 
481 1 0.178571 0.214286 0.0416667 55.845 -2.45528e-07 
490 1 0.142935 0.142834 0.0842468 55.845 4.78157e-08 
491 1 0.178571 0.142857 0.0416667 55.845 -2.42592e-07 
492 1 0.178513 0.178593 0.0842148 55.845 -9.75839e-08 
493 1 0.214286 0.178571 0.0416667 55.845 -3.01081e-07 
494 1 0.214269 0.214221 0.0843268 55.845 -1.0033e-07 
495 1 0.25 0.214286 0.0416667 55.845 -1.03487e-07 
504 1 0.214258 0.142929 0.084284 55.845 -8.92642e-08 
505 1 0.25 0.142857 0.0416667 55.845 -2.27657e-07 
506 1 0.250054 0.17859 0.0843189 55.845 -9.51998e-08 
571 1 0.142857 0.214286 0 55.845 -1.40563e-07 
576 1 0.142857 0.142857 0 55.845 8.07906e-09 
577 1 0.178571 0.178571 0 55.845 -9.02406e-08 
578 1 0.214286 0.214286 0 55.845 -1.57967e-07 
583 1 0.214286 0.142857 0 55.845 -1.1976e-07 
584 1 0.25 0.178571 0 55.845 -1.51319e-07 
303 1 0.285674 0.178559 0.21185 55.845 -1.56888e-09 
305 1 0.321353 0.214219 0.211773 55.845 -7.52447e-08 
315 1 0.321416 0.142852 0.211868 55.845 -1.30565e-07 
317 1 0.357156 0.178489 0.211745 55.845 -1.20125e-07 
405 1 0.285734 0.178529 0.127632 55.845 3.62582e-07 
406 1 0.28578 0.214303 0.170241 55.845 -1.73725e-07 
407 1 0.321379 0.214251 0.127605 55.845 3.66957e-07 
416 1 0.285717 0.14288 0.170315 55.845 -1.09671e-07 
417 1 0.321392 0.142776 0.127722 55.845 3.83586e-07 
418 1 0.32136 0.17852 0.170494 55.845 -5.84015e-08 
419 1 0.357026 0.178589 0.127797 55.845 4.14356e-07 
420 1 0.357071 0.214178 0.170508 55.845 1.59206e-09 
432 1 0.35714 0.142855 0.170355 55.845 2.31783e-09 
507 1 0.285714 0.178571 0.0416667 55.845 -2.29987e-07 
508 1 0.285789 0.214252 0.0841343 55.845 -5.22222e-08 
509 1 0.321429 0.214286 0.0416667 55.845 -1.33947e-07 
518 1 0.285744 0.142861 0.0841624 55.845 -4.85036e-08 
519 1 0.321429 0.142857 0.0416667 55.845 -1.77532e-07 
520 1 0.321409 0.178461 0.0842233 55.845 6.79629e-09 
521 1 0.357143 0.178571 0.0416667 55.845 -2.17399e-07 
522 1 0.3572 0.214303 0.0842114 55.845 5.9003e-09 
534 1 0.357074 0.142889 0.0842307 55.845 9.21208e-08 
585 1 0.285714 0.214286 0 55.845 6.61763e-09 
590 1 0.285714 0.142857 0 55.845 -2.05579e-07 
591 1 0.321429 0.178571 0 55.845 3.1103e-08 
592 1 0.357143 0.214286 0 55.845 3.13545e-08 
598 1 0.357143 0.142857 0 55.845 -4.20495e-08 
319 1 0.392888 0.214336 0.211691 55.845 -1.0814e-07 
321 1 0.428593 0.249923 0.211897 55.845 -4.6975e-09 
331 1 0.392835 0.142885 0.211643 55.845 -8.8637e-08 
333 1 0.428496 0.178612 0.211625 55.845 -1.57974e-07 
335 1 0.464336 0.214271 0.211687 55.845 -1.09302e-07 
345 1 0.464278 0.142858 0.211608 55.845 -8.42446e-08 
606 1 0.464286 0.178571 0 55.845 -1.7734e-07 
421 1 0.392794 0.214164 0.127865 55.845 4.56062e-07 
422 1 0.39281 0.249916 0.170432 55.845 5.25566e-08 
423 1 0.428573 0.249949 0.127686 55.845 3.58972e-07 
433 1 0.392812 0.14295 0.127596 55.845 3.68843e-07 
434 1 0.392842 0.178539 0.17025 55.845 -1.97928e-08 
435 1 0.428576 0.178578 0.127748 55.845 3.94807e-07 
436 1 0.428588 0.214382 0.17041 55.845 7.26713e-09 
437 1 0.46436 0.214269 0.127938 55.845 3.68593e-07 
605 1 0.428571 0.142857 0 55.845 -4.90431e-08 
446 1 0.42848 0.14284 0.170255 55.845 -7.90489e-08 
447 1 0.464248 0.142784 0.127662 55.845 3.47709e-07 
448 1 0.464302 0.178602 0.170476 55.845 -1.31307e-07 
523 1 0.392857 0.214286 0.0416667 55.845 -1.59887e-07 
524 1 0.39286 0.249955 0.0843577 55.845 -3.08096e-08 
525 1 0.428571 0.25 0.0416667 55.845 -2.96949e-07 
535 1 0.392857 0.142857 0.0416667 55.845 -2.06441e-07 
536 1 0.392863 0.178577 0.0842142 55.845 6.24939e-08 
537 1 0.428571 0.178571 0.0416667 55.845 -1.50004e-07 
538 1 0.428519 0.21429 0.0843922 55.845 1.45519e-08 
539 1 0.464286 0.214286 0.0416667 55.845 -2.41641e-07 
548 1 0.428456 0.142785 0.0842379 55.845 -3.34539e-08 
549 1 0.464286 0.142857 0.0416667 55.845 -1.83233e-07 
550 1 0.464258 0.178572 0.0843335 55.845 -1.20157e-07 
593 1 0.392857 0.25 0 55.845 -1.50596e-07 
599 1 0.392857 0.178571 0 55.845 4.85815e-09 
600 1 0.428571 0.214286 0 55.845 -1.287e-07 
3 1 0.000113669 0.107162 0.464267 55.845 2.27365e-07 
7 1 3.16319e-05 0.0357227 0.464103 55.845 3.08585e-07 
8 1 0.0357249 0.071434 0.464263 55.845 2.58712e-07 
9 1 0.0715072 0.107147 0.464205 55.845 1.79644e-07 
13 1 0.035746 -0.000155925 0.464181 55.845 2.30679e-07 
14 1 0.071363 0.0356651 0.46395 55.845 3.68026e-07 
15 1 0.10709 0.0714704 0.464255 55.845 3.1471e-07 
20 1 0.107149 -4.11649e-06 0.46415 55.845 2.74188e-07 
55 1 0.000102672 0.107159 0.37897 55.845 -1.827e-07 
63 1 5.88241e-05 0.0358046 0.378952 55.845 -1.3914e-07 
64 1 4.71574e-05 0.0714233 0.421669 55.845 -4.36595e-08 
65 1 0.0357647 0.0713892 0.378901 55.845 -2.24143e-07 
66 1 0.0357036 0.10705 0.421578 55.845 -9.12334e-08 
67 1 0.0713799 0.107063 0.378962 55.845 -1.345e-07 
74 1 5.61767e-05 2.80047e-05 0.421605 55.845 -1.18722e-07 
75 1 0.0357302 2.37126e-05 0.378988 55.845 -2.65906e-07 
76 1 0.0357931 0.0356443 0.421628 55.845 -7.76557e-08 
77 1 0.071421 0.0356477 0.378904 55.845 -2.15922e-07 
78 1 0.0714185 0.0713872 0.42159 55.845 -2.33114e-07 
79 1 0.107055 0.0714663 0.378923 55.845 -9.44815e-08 
80 1 0.107145 0.107236 0.421549 55.845 -2.26644e-07 
88 1 0.0713963 -0.000163018 0.421675 55.845 -1.01558e-07 
89 1 0.107117 3.80611e-05 0.379057 55.845 -1.54939e-07 
90 1 0.107116 0.0357885 0.421656 55.845 -1.95212e-07 
157 1 2.39484e-05 0.107071 0.294927 55.845 4.06602e-07 
165 1 2.1258e-05 0.0357355 0.295003 55.845 4.60346e-07 
166 1 4.41299e-05 0.0713698 0.336748 55.845 -2.41419e-07 
167 1 0.0356817 0.0715218 0.294831 55.845 4.26435e-07 
168 1 0.0357372 0.107152 0.336699 55.845 -2.66605e-07 
169 1 0.0715054 0.107092 0.294966 55.845 4.74257e-07 
176 1 3.7395e-05 5.22728e-05 0.33686 55.845 -7.59783e-08 
177 1 0.0357332 3.63071e-05 0.294974 55.845 5.11376e-07 
178 1 0.0356752 0.0357806 0.336753 55.845 -2.06886e-07 
179 1 0.0714842 0.0356822 0.295144 55.845 4.49925e-07 
180 1 0.0714104 0.0713719 0.336614 55.845 -2.05211e-07 
181 1 0.107181 0.0714529 0.294971 55.845 4.87143e-07 
182 1 0.106995 0.107101 0.336803 55.845 -1.99669e-07 
190 1 0.0714107 3.83321e-05 0.336985 55.845 -2.14262e-07 
191 1 0.107161 -3.37376e-05 0.295183 55.845 4.69502e-07 
192 1 0.107187 0.0358025 0.336871 55.845 -1.39681e-07 
268 1 -0.000125379 0.0713358 0.253043 55.845 -2.04628e-07 
270 1 0.0357651 0.107187 0.253065 55.845 -7.18162e-08 
278 1 3.63163e-05 -7.34543e-06 0.25309 55.845 -4.52416e-08 
280 1 0.0357041 0.0357447 0.253 55.845 -1.64411e-07 
282 1 0.0714092 0.0714254 0.252953 55.845 -1.1389e-07 
284 1 0.107232 0.107022 0.253085 55.845 4.78204e-08 
292 1 0.0714643 6.20438e-05 0.253234 55.845 -1.86756e-07 
294 1 0.107262 0.0356272 0.253143 55.845 -7.56882e-08 
16 1 0.142848 0.107138 0.464215 55.845 3.49608e-07 
21 1 0.142809 0.0357827 0.464183 55.845 2.90486e-07 
22 1 0.178522 0.0714668 0.464167 55.845 3.41159e-07 
23 1 0.21424 0.107068 0.464113 55.845 3.28228e-07 
27 1 0.178527 8.86826e-05 0.46406 55.845 1.6759e-07 
28 1 0.21429 0.0356809 0.464164 55.845 3.38529e-07 
29 1 0.249998 0.0713937 0.464146 55.845 2.96109e-07 
81 1 0.142862 0.107105 0.378962 55.845 -6.59834e-08 
91 1 0.14283 0.0357506 0.378986 55.845 -1.78026e-07 
92 1 0.14282 0.0714542 0.421633 55.845 -1.84024e-07 
93 1 0.178504 0.0713604 0.378911 55.845 -1.25792e-07 
94 1 0.178511 0.10711 0.421693 55.845 -1.45801e-07 
95 1 0.214265 0.107047 0.378932 55.845 -3.37989e-07 
102 1 0.142847 2.71921e-05 0.421625 55.845 -1.16663e-07 
103 1 0.178579 -3.09138e-05 0.378903 55.845 -1.51994e-07 
104 1 0.178532 0.0357183 0.421726 55.845 -1.76906e-07 
105 1 0.214261 0.0355978 0.378902 55.845 -3.07888e-07 
106 1 0.214326 0.071341 0.421693 55.845 -5.19073e-08 
107 1 0.249931 0.0714681 0.37886 55.845 -3.05432e-07 
108 1 0.249913 0.107058 0.421627 55.845 -1.88201e-08 
118 1 0.214187 -2.49502e-05 0.421612 55.845 -1.90257e-08 
120 1 0.249997 0.0357123 0.421665 55.845 6.51522e-08 
183 1 0.142816 0.107104 0.29516 55.845 3.91943e-07 
193 1 0.142829 0.0357398 0.294997 55.845 4.50332e-07 
194 1 0.1428 0.0714888 0.336684 55.845 -7.48216e-08 
195 1 0.178622 0.0713539 0.295065 55.845 4.27403e-07 
196 1 0.178402 0.107165 0.337047 55.845 -7.53377e-08 
197 1 0.214213 0.107111 0.294955 55.845 3.8997e-07 
204 1 0.142856 4.58106e-05 0.336825 55.845 -1.46656e-07 
205 1 0.178638 -2.23319e-05 0.295081 55.845 5.58951e-07 
206 1 0.178529 0.0357316 0.336754 55.845 -7.37051e-08 
207 1 0.214298 0.0357072 0.295006 55.845 4.05864e-07 
208 1 0.214316 0.0714037 0.336817 55.845 -6.74795e-08 
209 1 0.249977 0.0714868 0.294959 55.845 2.90824e-07 
210 1 0.249964 0.10719 0.336915 55.845 -1.0987e-07 
220 1 0.214237 -1.38225e-05 0.33681 55.845 -2.01627e-07 
222 1 0.250031 0.0357255 0.336765 55.845 -1.75157e-07 
296 1 0.142932 0.0714157 0.253091 55.845 1.07568e-08 
298 1 0.178395 0.107153 0.253005 55.845 1.59008e-08 
306 1 0.142913 2.35706e-05 0.253142 55.845 -1.25133e-07 
308 1 0.178629 0.035732 0.253159 55.845 7.37875e-08 
310 1 0.214291 0.0714235 0.253 55.845 -9.19443e-09 
312 1 0.249969 0.107178 0.253292 55.845 -4.54677e-08 
322 1 0.214266 -1.17814e-07 0.253076 55.845 1.14339e-08 
324 1 0.249985 0.0357028 0.253073 55.845 -8.66481e-08 
30 1 0.285665 0.107169 0.464026 55.845 2.17953e-07 
35 1 0.249981 0.000119569 0.464091 55.845 1.14074e-07 
36 1 0.285724 0.035734 0.464171 55.845 2.3123e-07 
37 1 0.321506 0.0714343 0.464177 55.845 2.33433e-07 
38 1 0.357146 0.107108 0.464187 55.845 2.66897e-07 
42 1 0.321362 -0.000101233 0.464108 55.845 2.53081e-07 
43 1 0.357117 0.0357605 0.46421 55.845 3.04642e-07 
109 1 0.285745 0.10713 0.378922 55.845 -3.81237e-07 
119 1 0.250021 5.47667e-05 0.378819 55.845 -1.96872e-07 
121 1 0.285751 0.0357305 0.379008 55.845 -3.28458e-07 
122 1 0.285773 0.0714893 0.421587 55.845 -4.77652e-08 
123 1 0.321506 0.0715046 0.378994 55.845 -3.05589e-07 
124 1 0.321474 0.107191 0.421728 55.845 -9.60662e-08 
125 1 0.357188 0.106999 0.379121 55.845 -1.14346e-07 
133 1 0.321515 4.26685e-05 0.37893 55.845 -2.78452e-07 
134 1 0.321448 0.0357101 0.421642 55.845 -1.04856e-07 
135 1 0.357248 0.0357323 0.378824 55.845 -1.895e-07 
136 1 0.357262 0.0713951 0.42174 55.845 -8.32637e-08 
211 1 0.285642 0.107152 0.295015 55.845 3.1944e-07 
221 1 0.250082 5.28965e-05 0.294989 55.845 3.72049e-07 
223 1 0.28568 0.035677 0.295141 55.845 3.39526e-07 
224 1 0.285686 0.0714743 0.336814 55.845 -1.4972e-07 
225 1 0.321369 0.0714678 0.29499 55.845 3.28262e-07 
226 1 0.321523 0.107205 0.336891 55.845 -1.66881e-07 
227 1 0.357209 0.107243 0.295224 55.845 3.38227e-07 
235 1 0.321426 4.55747e-05 0.295092 55.845 4.37256e-07 
236 1 0.321527 0.0358302 0.336796 55.845 -1.66286e-07 
237 1 0.357126 0.0357538 0.294891 55.845 4.472e-07 
238 1 0.357234 0.0713817 0.336779 55.845 -7.88761e-08 
326 1 0.285719 0.0713664 0.253158 55.845 -8.20554e-08 
328 1 0.321515 0.107182 0.253273 55.845 8.73318e-09 
338 1 0.321402 0.0357887 0.252944 55.845 2.00726e-11 
340 1 0.357147 0.0715013 0.253107 55.845 -9.89407e-09 
44 1 0.392892 0.0713905 0.464343 55.845 3.10251e-07 
45 1 0.428556 0.107064 0.464265 55.845 2.45675e-07 
47 1 0.392787 5.78863e-05 0.464103 55.845 3.49859e-07 
48 1 0.428542 0.0357131 0.464289 55.845 2.74756e-07 
49 1 0.464278 0.0713375 0.464316 55.845 2.71562e-07 
50 1 0.464254 7.07829e-05 0.464148 55.845 3.84394e-07 
137 1 0.39292 0.0714426 0.378875 55.845 -1.73036e-07 
138 1 0.392835 0.107078 0.421681 55.845 -4.09165e-08 
139 1 0.428622 0.107081 0.379092 55.845 -2.5266e-07 
144 1 0.392811 2.69752e-05 0.378795 55.845 -2.35612e-07 
145 1 0.392865 0.0356892 0.421601 55.845 -3.10276e-08 
146 1 0.428591 0.0357359 0.379004 55.845 -1.66427e-07 
147 1 0.428637 0.0714238 0.421714 55.845 -4.89221e-08 
148 1 0.464189 0.071401 0.378959 55.845 -2.70611e-07 
149 1 0.46431 0.107057 0.421754 55.845 -5.34384e-10 
150 1 0.428556 -1.04478e-05 0.42161 55.845 -1.32157e-07 
151 1 0.464333 3.88566e-05 0.378875 55.845 -2.85276e-07 
152 1 0.464247 0.0356958 0.421595 55.845 -1.39004e-07 
239 1 0.392856 0.0715551 0.294955 55.845 4.64933e-07 
240 1 0.392814 0.107109 0.336973 55.845 -1.4544e-07 
241 1 0.428542 0.10714 0.295119 55.845 3.77977e-07 
246 1 0.392871 -5.44608e-05 0.29483 55.845 4.34761e-07 
247 1 0.392952 0.0357661 0.336776 55.845 -1.48478e-07 
248 1 0.428649 0.0357262 0.295006 55.845 4.33243e-07 
249 1 0.428631 0.0714219 0.336731 55.845 -1.91132e-08 
250 1 0.464253 0.0714947 0.294963 55.845 3.89489e-07 
251 1 0.464332 0.10715 0.336942 55.845 -1.95543e-07 
252 1 0.428543 5.48342e-06 0.336815 55.845 -2.29693e-07 
253 1 0.464307 9.04989e-05 0.294918 55.845 5.01905e-07 
254 1 0.464305 0.0356831 0.336805 55.845 -2.38012e-07 
342 1 0.392937 0.107172 0.25323 55.845 9.77166e-08 
349 1 0.392881 0.0357892 0.253154 55.845 -3.25757e-08 
351 1 0.4285 0.0714577 0.253097 55.845 -4.8949e-08 
353 1 0.464351 0.107177 0.253197 55.845 -1.62967e-07 
354 1 0.428642 9.98846e-06 0.253104 55.845 -2.12629e-07 
356 1 0.464326 0.0357879 0.25301 55.845 -2.77287e-07 
1 1 3.14123e-05 0.178637 0.464162 55.845 9.4457e-08 
2 1 0.035714 0.214291 0.464241 55.845 1.5996e-07 
4 1 0.0357249 0.14282 0.464178 55.845 1.54414e-07 
5 1 0.0712748 0.178565 0.464118 55.845 2.57635e-07 
6 1 0.107074 0.21431 0.464189 55.845 3.21013e-07 
10 1 0.107075 0.142928 0.464163 55.845 3.26429e-07 
51 1 -3.40644e-05 0.17853 0.378831 55.845 -2.24676e-07 
52 1 8.3466e-06 0.214281 0.421666 55.845 -7.84958e-10 
53 1 0.0356205 0.214272 0.378878 55.845 -2.04799e-07 
54 1 0.0356534 0.249984 0.421621 55.845 -3.63355e-08 
56 1 -4.87296e-05 0.142827 0.421588 55.845 9.16459e-08 
57 1 0.0356326 0.14284 0.378903 55.845 -2.11616e-07 
58 1 0.0356363 0.178539 0.421594 55.845 -3.03769e-08 
59 1 0.0714311 0.17859 0.379026 55.845 -1.39676e-07 
60 1 0.0713754 0.21427 0.421636 55.845 7.1564e-09 
61 1 0.107075 0.214284 0.379125 55.845 -1.73814e-07 
62 1 0.107073 0.249883 0.421696 55.845 -1.05012e-07 
68 1 0.0714824 0.142852 0.421428 55.845 -1.25137e-07 
69 1 0.107048 0.142816 0.378872 55.845 -1.03378e-07 
70 1 0.107027 0.178549 0.421788 55.845 -6.41249e-08 
153 1 4.7632e-05 0.17858 0.295074 55.845 5.61035e-07 
154 1 2.50726e-05 0.214247 0.33669 55.845 -2.28145e-07 
155 1 0.0357574 0.214308 0.295015 55.845 4.04964e-07 
156 1 0.035715 0.249924 0.336923 55.845 -2.75596e-07 
158 1 3.87988e-05 0.142796 0.336665 55.845 -3.01843e-07 
159 1 0.0357619 0.142833 0.294895 55.845 5.20618e-07 
160 1 0.0357891 0.178593 0.336869 55.845 -2.67317e-07 
161 1 0.0714091 0.178583 0.295105 55.845 4.61704e-07 
162 1 0.0714338 0.214315 0.336944 55.845 -3.87903e-07 
163 1 0.107087 0.21425 0.295129 55.845 4.0108e-07 
164 1 0.107271 0.249928 0.336967 55.845 -3.40014e-07 
170 1 0.0714305 0.142856 0.336748 55.845 -2.71761e-07 
171 1 0.107173 0.1428 0.295059 55.845 4.53394e-07 
172 1 0.107068 0.178528 0.336921 55.845 -4.08858e-07 
256 1 0.000116026 0.214371 0.253144 55.845 1.09926e-07 
258 1 0.0357401 0.250028 0.253075 55.845 -6.39362e-09 
260 1 4.27587e-05 0.142847 0.25303 55.845 -3.51903e-08 
262 1 0.0356526 0.178519 0.253161 55.845 7.16842e-08 
264 1 0.0713751 0.21432 0.253251 55.845 3.0754e-08 
266 1 0.10711 0.249991 0.253083 55.845 -7.9828e-08 
272 1 0.0714039 0.142829 0.253066 55.845 -5.08761e-09 
274 1 0.107077 0.178526 0.252991 55.845 -1.41202e-08 
11 1 0.142782 0.178556 0.464015 55.845 3.84162e-07 
12 1 0.178562 0.214267 0.464183 55.845 2.45205e-07 
17 1 0.178521 0.142933 0.464212 55.845 3.87693e-07 
18 1 0.21432 0.178582 0.464223 55.845 2.50001e-07 
19 1 0.250031 0.214298 0.464007 55.845 1.96294e-07 
24 1 0.249897 0.142782 0.463952 55.845 2.56032e-07 
71 1 0.142785 0.178594 0.378871 55.845 -1.64746e-07 
72 1 0.142896 0.214318 0.421791 55.845 -7.90913e-08 
73 1 0.178533 0.214323 0.379097 55.845 -1.35577e-07 
82 1 0.142769 0.142981 0.421695 55.845 -1.59987e-07 
83 1 0.178469 0.142958 0.379022 55.845 -1.74858e-07 
84 1 0.17853 0.178653 0.421621 55.845 -2.85212e-08 
85 1 0.214208 0.178581 0.379106 55.845 -2.28504e-07 
86 1 0.214322 0.214315 0.421574 55.845 -4.45748e-10 
87 1 0.249968 0.214267 0.378985 55.845 -2.37151e-07 
96 1 0.214112 0.142796 0.421585 55.845 3.88695e-08 
97 1 0.249879 0.142907 0.379029 55.845 -2.57004e-07 
98 1 0.250007 0.178551 0.421582 55.845 -2.62513e-09 
173 1 0.14284 0.178527 0.295139 55.845 4.13064e-07 
174 1 0.142835 0.214339 0.336814 55.845 -3.59729e-07 
175 1 0.178528 0.214347 0.295136 55.845 4.88719e-07 
184 1 0.142758 0.142839 0.336834 55.845 -2.88989e-07 
185 1 0.178557 0.142784 0.295139 55.845 4.03589e-07 
186 1 0.178605 0.178602 0.336817 55.845 -2.31309e-07 
187 1 0.214228 0.178572 0.294986 55.845 4.59866e-07 
188 1 0.214156 0.214253 0.33701 55.845 -2.03017e-07 
189 1 0.249997 0.214257 0.295107 55.845 4.08908e-07 
198 1 0.214147 0.142892 0.336954 55.845 -7.54018e-08 
199 1 0.249883 0.14283 0.295186 55.845 4.00248e-07 
200 1 0.249908 0.178586 0.337056 55.845 -1.95672e-07 
276 1 0.142819 0.214177 0.253094 55.845 -8.25724e-08 
286 1 0.142884 0.142746 0.253083 55.845 5.7575e-08 
288 1 0.178497 0.178526 0.253119 55.845 -5.86265e-08 
290 1 0.214253 0.214336 0.253171 55.845 -1.09597e-07 
300 1 0.214343 0.14287 0.253104 55.845 -3.71622e-08 
302 1 0.250009 0.178574 0.253295 55.845 -6.25484e-08 
25 1 0.285739 0.178564 0.464023 55.845 1.4361e-07 
26 1 0.321414 0.214318 0.463899 55.845 2.74456e-07 
31 1 0.321322 0.142894 0.464088 55.845 2.22507e-07 
32 1 0.357139 0.178607 0.464123 55.845 2.75553e-07 
99 1 0.285705 0.178612 0.378861 55.845 -1.99752e-07 
100 1 0.28575 0.214401 0.421604 55.845 -2.64312e-08 
101 1 0.321519 0.214386 0.378874 55.845 -1.53203e-07 
110 1 0.285668 0.142912 0.421491 55.845 1.0524e-08 
111 1 0.321413 0.142799 0.378955 55.845 -2.17544e-07 
112 1 0.321423 0.178605 0.421501 55.845 -3.56474e-08 
113 1 0.357134 0.178503 0.378802 55.845 -2.54535e-07 
114 1 0.357241 0.214274 0.421385 55.845 -1.71603e-07 
126 1 0.357123 0.142948 0.421653 55.845 2.63751e-08 
201 1 0.285702 0.178556 0.295144 55.845 4.09651e-07 
202 1 0.28568 0.214333 0.33697 55.845 -2.14785e-07 
203 1 0.321393 0.214297 0.295129 55.845 4.65754e-07 
212 1 0.285715 0.142868 0.337041 55.845 -4.4661e-08 
213 1 0.321487 0.142888 0.295201 55.845 3.36487e-07 
214 1 0.32147 0.178564 0.336884 55.845 -2.86169e-07 