ITEM: TIMESTEP
2400
ITEM: NUMBER OF ATOMS
5880
ITEM: BOX BOUNDS pp pp ff
-27.9992 27.9992
-27.9992 27.9992
0 34.092
ITEM: ATOMS id type xs ys zs mass q 
259 1 1.3481e-05 0.107173 0.208537 55.845 -6.06452e-07 
267 1 -1.69592e-05 0.0356413 0.208613 55.845 -7.69142e-07 
269 1 0.0357374 0.0713974 0.208648 55.845 -4.47244e-07 
271 1 0.0713912 0.1071 0.20865 55.845 -4.54688e-07 
279 1 0.0357124 -9.2957e-05 0.20877 55.845 -8.99647e-07 
281 1 0.0713992 0.0357204 0.208697 55.845 -5.66373e-07 
283 1 0.107165 0.0714019 0.208677 55.845 -2.85159e-07 
293 1 0.107181 3.39213e-07 0.208675 55.845 -6.81684e-07 
361 1 -7.3234e-05 0.107191 0.125893 55.845 1.87041e-07 
369 1 -4.9282e-05 0.0357025 0.125796 55.845 1.75856e-07 
370 1 7.14308e-05 0.0714504 0.167139 55.845 4.01227e-07 
371 1 0.0356946 0.0714697 0.125814 55.845 3.23042e-07 
372 1 0.0357238 0.10719 0.167209 55.845 1.43409e-07 
373 1 0.0714204 0.107168 0.125673 55.845 2.49269e-07 
380 1 1.17173e-05 -6.52368e-06 0.166997 55.845 5.37782e-07 
381 1 0.035697 -2.62425e-05 0.125898 55.845 3.74859e-07 
382 1 0.0356677 0.0356662 0.167051 55.845 3.40369e-07 
383 1 0.0714344 0.0357785 0.125768 55.845 2.68287e-07 
384 1 0.071441 0.0714451 0.167064 55.845 2.41471e-07 
385 1 0.107117 0.071509 0.125707 55.845 2.37327e-07 
386 1 0.107146 0.107149 0.167053 55.845 9.76007e-08 
394 1 0.0714422 -1.51169e-05 0.167152 55.845 2.9805e-07 
395 1 0.107137 -2.12002e-05 0.125895 55.845 2.36977e-07 
396 1 0.107177 0.0357773 0.167075 55.845 2.736e-07 
463 1 0 0.107143 0.0416667 55.845 -1.07941e-07 
471 1 0 0.0357143 0.0416667 55.845 -1.62868e-08 
472 1 4.98749e-05 0.0714517 0.0839002 55.845 -5.73062e-07 
473 1 0.0357143 0.0714286 0.0416667 55.845 1.02249e-07 
474 1 0.0357032 0.107178 0.0837526 55.845 -3.74934e-07 
475 1 0.0714286 0.107143 0.0416667 55.845 1.54739e-07 
482 1 -5.91207e-06 7.24066e-05 0.0837126 55.845 -3.46927e-07 
483 1 0.0357143 0 0.0416667 55.845 -9.31582e-08 
484 1 0.0356883 0.0357663 0.0838925 55.845 -2.86815e-07 
485 1 0.0714286 0.0357143 0.0416667 55.845 5.18894e-08 
486 1 0.0714218 0.0714237 0.0837592 55.845 -3.33601e-07 
487 1 0.107143 0.0714286 0.0416667 55.845 4.11288e-08 
488 1 0.107158 0.107155 0.0836707 55.845 -3.83229e-07 
496 1 0.0714046 4.52622e-05 0.0839126 55.845 -4.80719e-07 
497 1 0.107143 0 0.0416667 55.845 1.03704e-07 
498 1 0.107189 0.0356292 0.0838277 55.845 -5.71549e-07 
567 1 0 0.0714286 0 55.845 4.92059e-07 
568 1 0.0357143 0.107143 0 55.845 2.61523e-07 
572 1 0 0 0 55.845 4.01329e-07 
573 1 0.0357143 0.0357143 0 55.845 5.49221e-07 
574 1 0.0714286 0.0714286 0 55.845 2.6363e-07 
575 1 0.107143 0.107143 0 55.845 3.9059e-07 
579 1 0.0714286 0 0 55.845 4.50365e-07 
580 1 0.107143 0.0357143 0 55.845 4.93589e-07 
285 1 0.142856 0.107169 0.208653 55.845 -6.71542e-07 
295 1 0.142886 0.0357765 0.208729 55.845 -4.08623e-07 
297 1 0.178583 0.0715057 0.208695 55.845 -7.64988e-07 
299 1 0.214359 0.107166 0.208677 55.845 -9.47849e-07 
307 1 0.178565 -1.94426e-06 0.208875 55.845 -6.39456e-07 
309 1 0.214285 0.0357037 0.20874 55.845 -7.01078e-07 
311 1 0.24999 0.071394 0.208722 55.845 -5.88297e-07 
387 1 0.142904 0.107089 0.125812 55.845 1.17426e-07 
397 1 0.142929 0.0356813 0.125828 55.845 2.35982e-07 
398 1 0.142874 0.0714173 0.167183 55.845 3.73847e-07 
399 1 0.17864 0.0714417 0.125915 55.845 2.46893e-07 
400 1 0.178636 0.107259 0.167297 55.845 3.95805e-07 
401 1 0.214367 0.107166 0.12584 55.845 2.66756e-07 
408 1 0.142901 1.22465e-05 0.167247 55.845 1.53136e-07 
409 1 0.178553 9.68601e-05 0.125886 55.845 6.10257e-07 
410 1 0.178622 0.0357008 0.167255 55.845 2.87098e-07 
411 1 0.214332 0.0356664 0.125817 55.845 3.8416e-07 
412 1 0.214335 0.0713502 0.167274 55.845 3.07895e-07 
413 1 0.249994 0.0713689 0.12586 55.845 3.59465e-07 
414 1 0.250098 0.107141 0.16709 55.845 5.44348e-07 
424 1 0.214297 -5.91654e-05 0.167183 55.845 3.94659e-07 
426 1 0.24995 0.0356072 0.167201 55.845 3.47304e-07 
489 1 0.142857 0.107143 0.0416667 55.845 3.4179e-08 
499 1 0.142857 0.0357143 0.0416667 55.845 -7.88339e-08 
500 1 0.142925 0.0713893 0.0837952 55.845 -5.43492e-07 
501 1 0.178571 0.0714286 0.0416667 55.845 -1.1574e-07 
502 1 0.178628 0.107135 0.08396 55.845 -2.89614e-07 
503 1 0.214286 0.107143 0.0416667 55.845 -1.88707e-07 
510 1 0.142799 -2.53751e-05 0.0838644 55.845 -5.10378e-07 
511 1 0.178571 0 0.0416667 55.845 -1.36879e-07 
512 1 0.178603 0.0356733 0.0838595 55.845 -4.54878e-07 
513 1 0.214286 0.0357143 0.0416667 55.845 -1.29043e-07 
514 1 0.214292 0.0714665 0.0838577 55.845 -2.83174e-07 
515 1 0.25 0.0714286 0.0416667 55.845 -1.94187e-07 
516 1 0.250032 0.107129 0.0838115 55.845 -3.61992e-07 
526 1 0.214313 -7.78267e-05 0.0838321 55.845 -5.5581e-07 
528 1 0.249995 0.0356524 0.0838809 55.845 -6.5136e-07 
581 1 0.142857 0.0714286 0 55.845 3.44519e-07 
582 1 0.178571 0.107143 0 55.845 3.60478e-07 
586 1 0.142857 0 0 55.845 3.73428e-07 
587 1 0.178571 0.0357143 0 55.845 4.67574e-07 
588 1 0.214286 0.0714286 0 55.845 5.1946e-07 
589 1 0.25 0.107143 0 55.845 3.90769e-07 
594 1 0.214286 0 0 55.845 4.40854e-07 
595 1 0.25 0.0357143 0 55.845 4.71507e-07 
313 1 0.285756 0.107087 0.208608 55.845 -6.62132e-07 
323 1 0.249963 3.39016e-05 0.208807 55.845 -6.08548e-07 
325 1 0.285695 0.0356742 0.208685 55.845 -4.99847e-07 
327 1 0.321405 0.0714042 0.208742 55.845 -4.46604e-07 
329 1 0.357085 0.10712 0.208667 55.845 -4.04519e-07 
337 1 0.321395 2.43947e-05 0.208619 55.845 -5.08086e-07 
339 1 0.357066 0.0357346 0.208645 55.845 -3.8209e-07 
415 1 0.285755 0.107165 0.125776 55.845 1.68914e-07 
425 1 0.250014 -5.62047e-05 0.125865 55.845 4.71745e-07 
427 1 0.285667 0.0357176 0.125934 55.845 5.07415e-07 
428 1 0.2857 0.0713976 0.167239 55.845 2.0862e-07 
429 1 0.321418 0.0714881 0.125764 55.845 2.24307e-07 
430 1 0.321435 0.107154 0.167113 55.845 1.63467e-07 
431 1 0.357144 0.107164 0.125768 55.845 2.98597e-07 
439 1 0.321469 4.3334e-05 0.125901 55.845 4.20292e-07 
440 1 0.321419 0.0357629 0.167156 55.845 1.3772e-07 
441 1 0.357175 0.0357119 0.125796 55.845 4.95122e-07 
442 1 0.357154 0.0713882 0.167108 55.845 1.86224e-07 
517 1 0.285714 0.107143 0.0416667 55.845 -6.4434e-08 
527 1 0.25 0 0.0416667 55.845 -1.25055e-07 
529 1 0.285714 0.0357143 0.0416667 55.845 2.66778e-08 
530 1 0.285711 0.0714157 0.0837712 55.845 -5.32126e-07 
531 1 0.321429 0.0714286 0.0416667 55.845 4.3364e-08 
532 1 0.321452 0.10716 0.0838428 55.845 -4.46799e-07 
533 1 0.357143 0.107143 0.0416667 55.845 -2.18768e-08 
603 1 0.357143 0.0714286 0 55.845 4.02927e-07 
541 1 0.321429 0 0.0416667 55.845 5.07876e-08 
542 1 0.321441 0.0356787 0.0838491 55.845 -5.5114e-07 
543 1 0.357143 0.0357143 0.0416667 55.845 1.15042e-08 
544 1 0.357136 0.0714578 0.0838382 55.845 -7.02265e-07 
602 1 0.321429 0.0357143 0 55.845 5.02854e-07 
596 1 0.285714 0.0714286 0 55.845 2.92915e-07 
597 1 0.321429 0.107143 0 55.845 2.51448e-07 
612 1 0.464286 0.0357143 0 55.845 4.33798e-07 
611 1 0.428571 0 0 55.845 4.45241e-07 
610 1 0.464286 0.107143 0 55.845 4.19387e-07 
609 1 0.428571 0.0714286 0 55.845 4.79518e-07 
608 1 0.392857 0.0357143 0 55.845 3.88723e-07 
341 1 0.392876 0.0714126 0.208587 55.845 -2.97461e-07 
343 1 0.428541 0.107192 0.208651 55.845 -6.86347e-07 
348 1 0.392824 8.84897e-05 0.208605 55.845 -4.4595e-07 
350 1 0.428502 0.0356896 0.20862 55.845 -6.99278e-07 
352 1 0.464266 0.0714178 0.208735 55.845 -7.74699e-07 
355 1 0.46427 4.43945e-05 0.208625 55.845 -8.73667e-07 
443 1 0.392893 0.0714485 0.125796 55.845 3.83809e-07 
444 1 0.392797 0.107208 0.167227 55.845 4.091e-07 
445 1 0.428585 0.107157 0.125937 55.845 1.8659e-07 
604 1 0.392857 0.107143 0 55.845 4.18135e-07 
450 1 0.392855 4.80778e-05 0.125831 55.845 3.79124e-07 
451 1 0.392838 0.0357567 0.167132 55.845 5.78142e-08 
452 1 0.428578 0.0357566 0.125823 55.845 3.55201e-07 
453 1 0.428577 0.071444 0.167158 55.845 3.58726e-07 
454 1 0.464278 0.0713646 0.125777 55.845 1.17054e-07 
455 1 0.464336 0.107135 0.167111 55.845 4.41482e-07 
456 1 0.428563 4.91689e-05 0.167111 55.845 2.26113e-07 
457 1 0.464289 -2.06491e-05 0.125802 55.845 3.4199e-07 
458 1 0.464275 0.0357254 0.167156 55.845 3.86088e-07 
545 1 0.392857 0.0714286 0.0416667 55.845 -4.84013e-08 
546 1 0.392905 0.107124 0.0838969 55.845 -6.01618e-07 
547 1 0.428571 0.107143 0.0416667 55.845 -1.5081e-07 
552 1 0.392857 0 0.0416667 55.845 -3.65967e-08 
553 1 0.392864 0.0357299 0.0838022 55.845 -5.73807e-07 
554 1 0.428571 0.0357143 0.0416667 55.845 -1.13883e-07 
555 1 0.428602 0.0714068 0.0838644 55.845 -3.50208e-07 
556 1 0.464286 0.0714286 0.0416667 55.845 -1.70903e-07 
557 1 0.46427 0.107123 0.0838642 55.845 -3.17024e-07 
558 1 0.428518 5.49346e-05 0.0838531 55.845 -5.07288e-07 
559 1 0.464286 0 0.0416667 55.845 -2.6113e-07 
560 1 0.464285 0.0356891 0.083848 55.845 -5.34165e-07 
255 1 -1.48855e-05 0.178528 0.208589 55.845 -4.27887e-07 
257 1 0.0357104 0.214237 0.208711 55.845 -2.6882e-07 
261 1 0.0357303 0.142819 0.208625 55.845 -2.55959e-07 
263 1 0.0714408 0.178585 0.20867 55.845 -1.43928e-07 
265 1 0.107147 0.214274 0.208649 55.845 -4.49735e-07 
273 1 0.107144 0.142876 0.208693 55.845 -6.25465e-07 
357 1 -3.06659e-05 0.178617 0.125824 55.845 3.21433e-07 
358 1 -3.66378e-06 0.214238 0.167169 55.845 2.37494e-07 
359 1 0.0357094 0.214278 0.125942 55.845 3.3312e-07 
360 1 0.0356625 0.250007 0.16718 55.845 2.60335e-07 
362 1 4.44647e-06 0.142872 0.167049 55.845 2.95015e-08 
363 1 0.0357195 0.142865 0.125857 55.845 4.20005e-07 
364 1 0.0357383 0.178502 0.167231 55.845 2.02599e-07 
365 1 0.0714303 0.178672 0.125846 55.845 3.64661e-07 
366 1 0.0714212 0.214395 0.167123 55.845 2.24743e-07 
367 1 0.107117 0.214297 0.125705 55.845 2.00803e-07 
368 1 0.107176 0.250021 0.167188 55.845 2.04636e-07 
374 1 0.0714604 0.142855 0.167118 55.845 1.49862e-07 
375 1 0.107146 0.142896 0.125722 55.845 2.25399e-07 
376 1 0.107075 0.178574 0.167166 55.845 2.77495e-07 
459 1 0 0.178571 0.0416667 55.845 3.17337e-08 
460 1 -2.67021e-05 0.214248 0.0838959 55.845 -5.75856e-07 
461 1 0.0357143 0.214286 0.0416667 55.845 -3.03177e-08 
462 1 0.0356133 0.249969 0.0839785 55.845 -4.9642e-07 
464 1 9.03772e-07 0.14295 0.0836975 55.845 -4.97949e-07 
465 1 0.0357143 0.142857 0.0416667 55.845 9.90921e-08 
466 1 0.0357776 0.178597 0.0838306 55.845 -5.63164e-07 
467 1 0.0714286 0.178571 0.0416667 55.845 3.40504e-08 
468 1 0.0713634 0.214301 0.0838338 55.845 -6.13896e-07 
469 1 0.107143 0.214286 0.0416667 55.845 -1.40476e-08 
470 1 0.107159 0.250057 0.0837641 55.845 -6.21099e-07 
476 1 0.0714654 0.142966 0.0839281 55.845 -2.98584e-07 
477 1 0.107143 0.142857 0.0416667 55.845 9.25736e-08 
478 1 0.107168 0.178605 0.0839075 55.845 -3.9756e-07 
561 1 0 0.214286 0 55.845 4.24612e-07 
562 1 0.0357143 0.25 0 55.845 4.71135e-07 
563 1 0 0.142857 0 55.845 3.05159e-07 
564 1 0.0357143 0.178571 0 55.845 2.88118e-07 
565 1 0.0714286 0.214286 0 55.845 3.06581e-07 
566 1 0.107143 0.25 0 55.845 3.40294e-07 
569 1 0.0714286 0.142857 0 55.845 2.86135e-07 
570 1 0.107143 0.178571 0 55.845 3.545e-07 
275 1 0.1429 0.178587 0.208704 55.845 -5.04044e-07 
277 1 0.178557 0.214292 0.208652 55.845 -7.3331e-07 
287 1 0.178588 0.142899 0.208695 55.845 -7.8956e-07 
289 1 0.214253 0.178592 0.208734 55.845 -8.74382e-07 
291 1 0.250057 0.214308 0.208718 55.845 -7.66174e-07 
301 1 0.250043 0.1428 0.208745 55.845 -8.15569e-07 
377 1 0.142832 0.178599 0.125824 55.845 7.34105e-08 
378 1 0.142814 0.214313 0.167115 55.845 4.33703e-07 
379 1 0.178536 0.214248 0.125797 55.845 2.03133e-07 
388 1 0.142905 0.142867 0.167144 55.845 3.0766e-07 
389 1 0.17861 0.142951 0.125817 55.845 5.57947e-08 
390 1 0.178597 0.178597 0.167079 55.845 5.80176e-07 
391 1 0.214322 0.178575 0.125843 55.845 5.50133e-08 
392 1 0.214286 0.214272 0.167177 55.845 5.81938e-07 
393 1 0.250011 0.214294 0.12589 55.845 2.13713e-07 
402 1 0.214344 0.142921 0.167121 55.845 6.10137e-07 
403 1 0.25002 0.142885 0.125751 55.845 1.2644e-07 
404 1 0.24993 0.178567 0.167146 55.845 6.4467e-07 
479 1 0.142857 0.178571 0.0416667 55.845 -1.03758e-07 
480 1 0.142845 0.214265 0.0838791 55.845 -4.46558e-07 
481 1 0.178571 0.214286 0.0416667 55.845 -1.97923e-07 
490 1 0.142926 0.142891 0.0839276 55.845 -2.26293e-07 
491 1 0.178571 0.142857 0.0416667 55.845 -2.41247e-07 
492 1 0.17854 0.178607 0.0837584 55.845 -3.90989e-07 
493 1 0.214286 0.178571 0.0416667 55.845 -1.06459e-07 
494 1 0.214281 0.214271 0.0838119 55.845 -2.99559e-07 
495 1 0.25 0.214286 0.0416667 55.845 -6.33362e-08 
504 1 0.21435 0.142873 0.0838133 55.845 -2.57583e-07 
505 1 0.25 0.142857 0.0416667 55.845 -1.04774e-07 
506 1 0.249987 0.178596 0.0837626 55.845 -2.33975e-07 
571 1 0.142857 0.214286 0 55.845 3.82477e-07 
576 1 0.142857 0.142857 0 55.845 1.76094e-07 
577 1 0.178571 0.178571 0 55.845 4.66581e-07 
578 1 0.214286 0.214286 0 55.845 4.63828e-07 
583 1 0.214286 0.142857 0 55.845 2.36524e-07 
584 1 0.25 0.178571 0 55.845 5.34958e-07 
303 1 0.285705 0.178547 0.20876 55.845 -7.60091e-07 
305 1 0.321483 0.214284 0.208779 55.845 -4.6671e-07 
315 1 0.321381 0.142876 0.208588 55.845 -6.02671e-07 
317 1 0.35715 0.178586 0.208665 55.845 -6.61385e-07 
405 1 0.285648 0.178569 0.125872 55.845 -2.01616e-08 
406 1 0.285761 0.214271 0.167158 55.845 4.95021e-07 
407 1 0.321444 0.214304 0.125849 55.845 1.36596e-07 
416 1 0.285695 0.142843 0.167011 55.845 3.93396e-07 
417 1 0.321352 0.142793 0.125751 55.845 1.64873e-07 
418 1 0.321371 0.178591 0.167214 55.845 4.14919e-07 
419 1 0.357117 0.178581 0.125939 55.845 2.04415e-07 
420 1 0.357087 0.214263 0.167175 55.845 3.77412e-07 
432 1 0.357121 0.142874 0.167098 55.845 2.02205e-07 
507 1 0.285714 0.178571 0.0416667 55.845 -1.44253e-07 
508 1 0.285724 0.214246 0.083894 55.845 -3.59808e-07 
509 1 0.321429 0.214286 0.0416667 55.845 -2.56451e-07 
518 1 0.285691 0.142844 0.0837241 55.845 -4.7603e-07 
519 1 0.321429 0.142857 0.0416667 55.845 -3.9425e-08 
520 1 0.321409 0.178608 0.0837817 55.845 -4.17979e-07 
521 1 0.357143 0.178571 0.0416667 55.845 9.65455e-09 
522 1 0.35717 0.214293 0.0837808 55.845 -5.45992e-07 
534 1 0.357107 0.142855 0.0838277 55.845 -1.82422e-07 
585 1 0.285714 0.214286 0 55.845 3.47917e-07 
590 1 0.285714 0.142857 0 55.845 3.26708e-07 
591 1 0.321429 0.178571 0 55.845 1.55526e-07 
592 1 0.357143 0.214286 0 55.845 4.49892e-07 
598 1 0.357143 0.142857 0 55.845 2.20943e-07 
319 1 0.39288 0.214208 0.208588 55.845 -8.48841e-07 
321 1 0.42858 0.249989 0.208608 55.845 -6.61807e-07 
331 1 0.392828 0.142855 0.208624 55.845 -5.60357e-07 
333 1 0.428577 0.178612 0.208677 55.845 -9.17682e-07 
335 1 0.464351 0.214296 0.208583 55.845 -9.58608e-07 
345 1 0.464289 0.142859 0.208587 55.845 -8.59003e-07 
606 1 0.464286 0.178571 0 55.845 3.87819e-07 
421 1 0.392885 0.214217 0.125935 55.845 3.36438e-07 
422 1 0.392817 0.249972 0.167067 55.845 3.53761e-07 
423 1 0.428529 0.250037 0.125857 55.845 4.25072e-07 
433 1 0.392877 0.142848 0.125797 55.845 1.53284e-07 
434 1 0.39285 0.178596 0.167255 55.845 3.75924e-07 
435 1 0.428548 0.178552 0.125883 55.845 2.25487e-07 
436 1 0.428594 0.214273 0.167224 55.845 4.74323e-07 
437 1 0.464224 0.214228 0.125837 55.845 2.25738e-07 
605 1 0.428571 0.142857 0 55.845 3.89325e-07 
446 1 0.428584 0.142877 0.16722 55.845 5.62489e-07 
447 1 0.464272 0.142846 0.125784 55.845 1.25002e-07 
448 1 0.464248 0.178586 0.167129 55.845 4.97324e-07 
523 1 0.392857 0.214286 0.0416667 55.845 -6.91906e-08 
524 1 0.392885 0.249999 0.0838165 55.845 -4.86741e-07 
525 1 0.428571 0.25 0.0416667 55.845 -1.7919e-07 
535 1 0.392857 0.142857 0.0416667 55.845 1.29434e-08 
536 1 0.392787 0.178573 0.0837277 55.845 -2.50315e-07 
537 1 0.428571 0.178571 0.0416667 55.845 -2.76139e-07 
538 1 0.428595 0.214278 0.0838851 55.845 -4.13435e-07 
539 1 0.464286 0.214286 0.0416667 55.845 -2.45673e-07 
548 1 0.428573 0.142852 0.0838259 55.845 -4.12384e-07 
549 1 0.464286 0.142857 0.0416667 55.845 -1.67168e-07 
550 1 0.464296 0.178587 0.0838515 55.845 -3.34332e-07 
593 1 0.392857 0.25 0 55.845 4.63922e-07 
599 1 0.392857 0.178571 0 55.845 3.36751e-07 
600 1 0.428571 0.214286 0 55.845 3.94624e-07 
3 1 -1.05939e-06 0.107094 0.458551 55.845 -1.31294e-07 
7 1 -1.28235e-05 0.0357709 0.458505 55.845 2.09607e-08 
8 1 0.0357416 0.071383 0.458563 55.845 -8.06184e-08 
9 1 0.0713748 0.107198 0.458709 55.845 1.78808e-07 
13 1 0.0357229 -4.76206e-05 0.458653 55.845 1.20176e-07 
14 1 0.0713867 0.0357609 0.458587 55.845 1.7258e-07 
15 1 0.107165 0.07143 0.458652 55.845 7.30552e-08 
20 1 0.107142 1.0215e-05 0.458621 55.845 2.19073e-07 
55 1 2.35131e-05 0.107097 0.373772 55.845 -6.17705e-08 
63 1 4.28399e-05 0.0357257 0.373647 55.845 -2.92147e-07 
64 1 -1.77917e-05 0.0714251 0.415853 55.845 7.79375e-08 
65 1 0.0357617 0.0714205 0.373778 55.845 -4.83593e-08 
66 1 0.0357412 0.107133 0.415959 55.845 1.34629e-07 
67 1 0.0714481 0.10714 0.373759 55.845 7.20269e-08 
74 1 -2.2409e-05 1.20594e-05 0.415974 55.845 -1.24268e-07 
75 1 0.0357286 2.45153e-05 0.373733 55.845 -3.81409e-08 
76 1 0.0356351 0.0357004 0.415912 55.845 -2.98785e-08 
77 1 0.0713898 0.0358 0.373766 55.845 -1.02601e-07 
78 1 0.0714684 0.0714907 0.416046 55.845 -2.22857e-08 
79 1 0.107131 0.0714879 0.373857 55.845 1.75419e-07 
80 1 0.107149 0.107107 0.416063 55.845 -3.79463e-07 
88 1 0.0714245 6.6085e-05 0.416069 55.845 -1.40096e-07 
89 1 0.107064 3.04241e-05 0.373818 55.845 -4.13069e-08 
90 1 0.107029 0.0357508 0.41598 55.845 -9.46252e-08 
157 1 -4.10285e-07 0.107227 0.291929 55.845 4.41985e-07 
165 1 2.4119e-05 0.0357144 0.291962 55.845 3.66163e-07 
166 1 9.10534e-05 0.0714106 0.332647 55.845 -6.16413e-08 
167 1 0.0357715 0.0714789 0.291997 55.845 4.55751e-07 
168 1 0.0357256 0.107123 0.332752 55.845 -3.16726e-07 
169 1 0.0714825 0.107162 0.29194 55.845 8.58036e-07 
176 1 8.19071e-07 2.02078e-05 0.332764 55.845 -1.05291e-07 
177 1 0.0356789 7.11332e-06 0.291969 55.845 6.01707e-07 
178 1 0.0357928 0.0357283 0.332598 55.845 -2.47508e-07 
179 1 0.0714142 0.035667 0.29185 55.845 4.54669e-07 
180 1 0.0713904 0.0714488 0.332781 55.845 -5.33042e-07 
181 1 0.107095 0.0714029 0.292017 55.845 5.12953e-07 
182 1 0.107135 0.107166 0.332738 55.845 -3.69703e-07 
190 1 0.0713799 9.3325e-06 0.332751 55.845 -3.07786e-07 
191 1 0.107136 1.38214e-05 0.291893 55.845 6.17764e-07 
192 1 0.107032 0.0356911 0.332857 55.845 -4.62092e-07 
268 1 2.55438e-05 0.0714408 0.250203 55.845 -5.14352e-09 
270 1 0.0357348 0.10717 0.250224 55.845 -1.13035e-07 
278 1 1.88448e-05 2.44061e-05 0.250192 55.845 1.09267e-08 
280 1 0.0356896 0.035735 0.250171 55.845 6.85494e-08 
282 1 0.0714596 0.0713955 0.250222 55.845 -1.0044e-07 
284 1 0.107138 0.107159 0.250138 55.845 6.34854e-09 
292 1 0.0714502 -2.11937e-05 0.250293 55.845 -1.32353e-07 
294 1 0.10718 0.0356926 0.250258 55.845 2.92263e-10 
16 1 0.142834 0.107119 0.458552 55.845 -1.48278e-07 
21 1 0.142838 0.035682 0.45852 55.845 -1.73346e-07 
22 1 0.178515 0.0714086 0.458605 55.845 -8.63944e-08 
23 1 0.214235 0.107167 0.458571 55.845 -2.272e-07 
27 1 0.178661 -5.15941e-05 0.45861 55.845 -1.88424e-07 
28 1 0.214301 0.0357699 0.458628 55.845 -3.99509e-07 
29 1 0.250006 0.071418 0.458673 55.845 -2.42259e-07 
81 1 0.142842 0.107154 0.373778 55.845 1.54255e-07 
91 1 0.142796 0.0356945 0.373797 55.845 -6.74414e-08 
92 1 0.142836 0.0713937 0.416013 55.845 -4.5472e-08 
93 1 0.178547 0.0714461 0.373752 55.845 4.58518e-08 
94 1 0.178504 0.107128 0.416049 55.845 -1.31099e-09 
95 1 0.214318 0.10711 0.37386 55.845 -1.86187e-08 
102 1 0.142873 5.51384e-05 0.415955 55.845 1.65569e-08 
103 1 0.178529 1.12694e-05 0.373791 55.845 -3.49213e-07 
104 1 0.178581 0.0357429 0.416085 55.845 3.43142e-08 
105 1 0.214194 0.0357022 0.373926 55.845 -2.652e-07 
106 1 0.214224 0.0714942 0.416089 55.845 3.3311e-07 
107 1 0.249997 0.071444 0.373951 55.845 -6.1848e-08 
108 1 0.249988 0.107084 0.416086 55.845 1.22881e-07 
118 1 0.214283 -2.88409e-05 0.415985 55.845 6.2502e-08 
120 1 0.25003 0.0357745 0.41601 55.845 1.78547e-07 
183 1 0.142852 0.107106 0.291985 55.845 7.38549e-07 
193 1 0.142866 0.0357174 0.291965 55.845 3.92342e-07 
194 1 0.142781 0.0713704 0.332753 55.845 -4.92171e-07 
195 1 0.178564 0.0714799 0.291981 55.845 1.51895e-07 
196 1 0.178544 0.107118 0.332816 55.845 -3.36875e-07 
197 1 0.214372 0.107147 0.292056 55.845 2.66153e-07 
204 1 0.142778 -1.22396e-05 0.332765 55.845 -2.84149e-07 
205 1 0.178564 1.99887e-05 0.292113 55.845 5.71859e-07 
206 1 0.178566 0.0357241 0.332793 55.845 -1.48806e-07 
207 1 0.214274 0.0357345 0.292031 55.845 4.04044e-07 
208 1 0.214328 0.0713424 0.332931 55.845 -7.09316e-08 
209 1 0.250003 0.0713932 0.291923 55.845 3.0504e-07 
210 1 0.25007 0.107091 0.332844 55.845 -3.23416e-07 
220 1 0.214331 -2.86419e-05 0.332944 55.845 -4.64555e-08 
222 1 0.249913 0.0357055 0.332819 55.845 -1.13114e-07 
296 1 0.142816 0.0714614 0.250286 55.845 2.96764e-08 
298 1 0.178594 0.107194 0.250279 55.845 2.77111e-07 
306 1 0.142868 4.27816e-05 0.250229 55.845 -1.03099e-07 
308 1 0.178563 0.035699 0.250269 55.845 1.38869e-07 
310 1 0.214351 0.0714753 0.250216 55.845 2.98002e-08 
312 1 0.250016 0.107136 0.25032 55.845 1.75232e-07 
322 1 0.214272 -2.73332e-05 0.250305 55.845 1.68263e-07 
324 1 0.250021 0.0357211 0.250269 55.845 1.50578e-07 
30 1 0.285744 0.107083 0.458572 55.845 -5.60331e-08 
35 1 0.250053 -3.89533e-06 0.458516 55.845 -3.88398e-07 
36 1 0.285765 0.0357652 0.458632 55.845 -1.67795e-07 
37 1 0.321563 0.0714138 0.458616 55.845 -9.44946e-08 
38 1 0.357214 0.107064 0.458528 55.845 -4.95028e-08 
42 1 0.321432 -4.42323e-05 0.45863 55.845 -1.09013e-07 
43 1 0.357109 0.035613 0.458582 55.845 -7.96048e-09 
109 1 0.285764 0.107155 0.373877 55.845 -1.39585e-07 
119 1 0.250004 3.52878e-05 0.373898 55.845 -2.15069e-07 
121 1 0.285711 0.0357881 0.373794 55.845 -3.77402e-07 
122 1 0.2858 0.0715216 0.416123 55.845 5.13265e-08 
123 1 0.321378 0.0714678 0.373854 55.845 9.59612e-08 
124 1 0.3215 0.10715 0.416091 55.845 -8.59792e-08 
125 1 0.357168 0.107146 0.373659 55.845 3.24624e-08 
133 1 0.321454 -6.1607e-05 0.373861 55.845 -1.76194e-07 
134 1 0.321428 0.0356768 0.415914 55.845 2.73267e-07 
135 1 0.357207 0.0357367 0.373748 55.845 8.9528e-08 
136 1 0.357186 0.0714097 0.415912 55.845 2.29557e-08 
211 1 0.285725 0.107085 0.292005 55.845 5.15199e-07 
221 1 0.250051 1.06209e-05 0.292063 55.845 3.74089e-07 
223 1 0.285708 0.0357039 0.292088 55.845 5.16922e-07 
224 1 0.285696 0.0714429 0.332875 55.845 -2.28375e-07 
225 1 0.321478 0.0714337 0.291985 55.845 5.07736e-07 
226 1 0.321418 0.107096 0.33268 55.845 -4.26756e-07 
227 1 0.357172 0.107127 0.291914 55.845 6.496e-07 
235 1 0.321456 -3.37795e-05 0.29199 55.845 6.59999e-07 
236 1 0.321451 0.0357456 0.332735 55.845 -2.66185e-07 
237 1 0.357166 0.0357364 0.292001 55.845 6.99084e-07 
238 1 0.357142 0.0714024 0.33282 55.845 -4.09211e-07 
326 1 0.285743 0.0713819 0.250206 55.845 -2.78978e-08 
328 1 0.32149 0.107142 0.250216 55.845 -8.43117e-08 
338 1 0.3214 0.035695 0.250338 55.845 -3.36469e-07 
340 1 0.357161 0.0713988 0.250322 55.845 -2.73555e-07 
44 1 0.392883 0.0714067 0.458471 55.845 -2.78291e-07 
45 1 0.428587 0.107084 0.45841 55.845 2.41223e-07 
47 1 0.392939 -4.69486e-05 0.458575 55.845 -2.02173e-07 
48 1 0.428567 0.0356854 0.458498 55.845 -4.37091e-08 
49 1 0.464323 0.0714131 0.458473 55.845 2.41747e-07 
50 1 0.464293 -5.04546e-06 0.458576 55.845 -1.12669e-07 
137 1 0.39293 0.071422 0.3738 55.845 -1.00418e-07 
138 1 0.392836 0.107145 0.415985 55.845 -3.07777e-07 
139 1 0.428572 0.107171 0.373765 55.845 6.73004e-08 
144 1 0.392814 3.78784e-05 0.373825 55.845 -2.30055e-07 
145 1 0.392884 0.0356492 0.416097 55.845 -7.78324e-08 
146 1 0.428615 0.0358011 0.373759 55.845 8.25261e-09 
147 1 0.428604 0.0714434 0.415993 55.845 9.64973e-08 
148 1 0.464341 0.0714443 0.373702 55.845 1.2153e-07 
149 1 0.464336 0.107117 0.415986 55.845 -1.46693e-07 
150 1 0.428647 -9.23286e-06 0.415888 55.845 1.20121e-08 
151 1 0.464318 6.49176e-05 0.373826 55.845 1.08346e-07 
152 1 0.464327 0.0357007 0.415928 55.845 -2.21191e-08 
239 1 0.39283 0.0713714 0.29204 55.845 7.17563e-07 
240 1 0.392942 0.107132 0.332717 55.845 -4.91786e-07 
241 1 0.428667 0.107122 0.291924 55.845 5.32453e-07 
246 1 0.392863 2.56293e-05 0.291906 55.845 6.86676e-07 
247 1 0.392943 0.0357464 0.332746 55.845 -2.04597e-07 
248 1 0.428581 0.035781 0.291845 55.845 6.92476e-07 
249 1 0.428634 0.0714523 0.332686 55.845 -3.32459e-07 
250 1 0.464375 0.0714037 0.291836 55.845 6.09489e-07 
251 1 0.464368 0.107146 0.332811 55.845 -2.12546e-07 
252 1 0.428632 0.000122315 0.332813 55.845 -2.10895e-07 
253 1 0.464304 3.21736e-05 0.291854 55.845 4.54811e-07 
254 1 0.464356 0.0357173 0.332684 55.845 -3.02066e-07 
342 1 0.392865 0.107072 0.250192 55.845 -5.17697e-08 
349 1 0.392816 0.0357044 0.25017 55.845 -2.70998e-07 
351 1 0.428636 0.0714601 0.250121 55.845 -1.71674e-07 
353 1 0.464282 0.107166 0.250184 55.845 -2.18917e-08 
354 1 0.428615 2.69805e-05 0.250153 55.845 -9.83269e-08 
356 1 0.4643 0.0357083 0.250121 55.845 8.64072e-08 
1 1 7.3934e-05 0.178545 0.458491 55.845 3.95425e-08 
2 1 0.03568 0.214322 0.458578 55.845 -1.60771e-07 
4 1 0.0357307 0.142857 0.458564 55.845 -1.54323e-07 
5 1 0.071442 0.1785 0.458623 55.845 -3.73893e-08 
6 1 0.107091 0.214283 0.458548 55.845 2.78632e-08 
10 1 0.107158 0.142912 0.45867 55.845 2.54005e-07 
51 1 3.63314e-05 0.178549 0.37381 55.845 -2.61687e-07 
52 1 4.12134e-05 0.214274 0.415995 55.845 7.74268e-10 
53 1 0.0356498 0.214275 0.373802 55.845 -1.82156e-08 
54 1 0.0357408 0.249997 0.415987 55.845 -1.11569e-07 
56 1 3.5204e-06 0.142838 0.415933 55.845 3.57356e-08 
57 1 0.0357264 0.142861 0.373803 55.845 -1.6563e-07 
58 1 0.0357884 0.178606 0.41598 55.845 -1.54783e-07 
59 1 0.0714631 0.17852 0.373842 55.845 -5.01245e-08 
60 1 0.0713433 0.214262 0.415995 55.845 -1.13153e-07 
61 1 0.107096 0.214191 0.373815 55.845 2.26228e-08 
62 1 0.107148 0.250028 0.415907 55.845 -1.48511e-07 
68 1 0.0714203 0.142846 0.415942 55.845 -3.58107e-07 
69 1 0.107136 0.142864 0.373799 55.845 1.48792e-07 
70 1 0.107082 0.178556 0.415973 55.845 -1.58397e-07 
153 1 2.25926e-05 0.17858 0.291911 55.845 4.99477e-07 
154 1 -4.56914e-06 0.214225 0.33291 55.845 -1.33685e-07 
155 1 0.0356893 0.214198 0.291988 55.845 6.43787e-07 
156 1 0.0357379 0.249946 0.332762 55.845 -3.47592e-07 
158 1 6.94762e-05 0.14287 0.332851 55.845 -2.11715e-07 
159 1 0.0357029 0.142889 0.291881 55.845 6.88672e-07 
160 1 0.0357901 0.178543 0.332787 55.845 -2.9914e-07 
161 1 0.0713817 0.178571 0.291925 55.845 7.22768e-07 
162 1 0.0713828 0.214265 0.332781 55.845 -4.37134e-07 
163 1 0.107086 0.214335 0.291835 55.845 6.09194e-07 
164 1 0.107056 0.249966 0.332697 55.845 -2.30799e-07 
170 1 0.0714395 0.142855 0.332713 55.845 -5.77499e-07 
171 1 0.10715 0.142878 0.291861 55.845 7.76069e-07 
172 1 0.107157 0.178626 0.332638 55.845 -5.64635e-07 
256 1 -2.00166e-05 0.214264 0.250335 55.845 -2.05349e-07 
258 1 0.0356756 0.249941 0.250236 55.845 -2.17488e-07 
260 1 6.39391e-05 0.142861 0.250189 55.845 -1.07929e-07 
262 1 0.0356786 0.178582 0.25028 55.845 -2.11615e-07 
264 1 0.0713327 0.214316 0.250252 55.845 -3.04766e-07 
266 1 0.107165 0.249997 0.250141 55.845 -1.93172e-07 
272 1 0.0714423 0.142884 0.250237 55.845 -2.72204e-07 
274 1 0.107128 0.178525 0.250116 55.845 -3.83109e-07 
11 1 0.142831 0.178587 0.458536 55.845 1.46538e-07 
12 1 0.178633 0.214267 0.458356 55.845 -1.02106e-07 
17 1 0.178585 0.142845 0.458555 55.845 3.73254e-08 
18 1 0.214298 0.178541 0.458462 55.845 -1.11073e-07 
19 1 0.249993 0.214235 0.458398 55.845 -2.95251e-08 
24 1 0.250049 0.142867 0.45866 55.845 -1.07238e-07 
71 1 0.142801 0.178535 0.373849 55.845 1.53814e-07 
72 1 0.142834 0.214353 0.41602 55.845 1.38329e-08 
73 1 0.178512 0.214285 0.373723 55.845 2.46345e-08 
82 1 0.142809 0.142817 0.416054 55.845 -2.93014e-07 
83 1 0.178541 0.142796 0.373807 55.845 1.39199e-07 
84 1 0.178544 0.17855 0.415947 55.845 -1.17143e-07 
85 1 0.214198 0.178526 0.37376 55.845 7.88064e-08 
86 1 0.214254 0.214192 0.415865 55.845 5.88925e-08 
87 1 0.250003 0.214189 0.373751 55.845 -9.32666e-08 
96 1 0.214221 0.142848 0.416004 55.845 -3.35229e-07 
97 1 0.249968 0.142792 0.373875 55.845 5.71585e-08 
98 1 0.249991 0.178446 0.415933 55.845 -2.0791e-07 
173 1 0.14289 0.178527 0.291904 55.845 3.12572e-07 
174 1 0.142774 0.214238 0.332774 55.845 -3.84093e-07 
175 1 0.178582 0.214253 0.291958 55.845 4.32683e-07 
184 1 0.142858 0.142848 0.332877 55.845 -4.9612e-07 
185 1 0.178643 0.14284 0.292043 55.845 3.56715e-07 
186 1 0.178542 0.17856 0.332811 55.845 -4.21609e-07 
187 1 0.214252 0.17859 0.291931 55.845 1.26922e-07 
188 1 0.214266 0.214296 0.332776 55.845 -2.47354e-07 
189 1 0.249942 0.214232 0.291951 55.845 5.16955e-07 
198 1 0.21433 0.142848 0.332729 55.845 -3.25394e-07 
199 1 0.250028 0.142873 0.291996 55.845 3.46826e-07 
200 1 0.249979 0.178487 0.33273 55.845 -3.5648e-07 
276 1 0.142912 0.214195 0.25018 55.845 -6.55141e-08 
286 1 0.142869 0.142839 0.250296 55.845 1.22742e-07 
288 1 0.178583 0.178533 0.250249 55.845 1.56192e-07 
290 1 0.21432 0.214351 0.250179 55.845 5.93873e-08 
300 1 0.214346 0.142821 0.250271 55.845 3.2851e-07 
302 1 0.249955 0.178597 0.250313 55.845 1.53746e-07 
25 1 0.285725 0.178552 0.458596 55.845 2.37737e-07 
26 1 0.321437 0.214264 0.458429 55.845 1.90858e-07 
31 1 0.321404 0.14286 0.458491 55.845 1.1714e-08 
32 1 0.357105 0.178557 0.458566 55.845 9.45766e-08 
99 1 0.285712 0.178557 0.373841 55.845 2.80297e-07 
100 1 0.285718 0.214211 0.416018 55.845 -1.06816e-07 
101 1 0.321477 0.214224 0.373706 55.845 1.05145e-08 
110 1 0.285742 0.142831 0.416042 55.845 -1.41661e-07 
111 1 0.321461 0.142797 0.373796 55.845 5.04198e-08 
112 1 0.321419 0.178542 0.415918 55.845 4.53392e-09 
113 1 0.357152 0.178583 0.373806 55.845 1.713e-07 
114 1 0.35718 0.214302 0.416017 55.845 -1.04983e-07 
126 1 0.357211 0.142868 0.415984 55.845 -2.35554e-07 
201 1 0.285721 0.178557 0.291938 55.845 3.50038e-07 
202 1 0.285707 0.214269 0.332736 55.845 -3.13599e-07 
203 1 0.321432 0.214296 0.291909 55.845 5.1521e-07 
212 1 0.2857 0.142816 0.332791 55.845 -3.93237e-07 
213 1 0.321406 0.142861 0.29202 55.845 4.88631e-07 
214 1 0.32139 0.178551 0.332802 55.845 -3.85291e-07 
215 1 0.357221 0.178557 0.292008 55.845 4.76503e-07 