ITEM: TIMESTEP
800
ITEM: NUMBER OF ATOMS
5880
ITEM: BOX BOUNDS pp pp ff
-27.9814 27.9814
-27.9814 27.9814
0 34.092
ITEM: ATOMS id type xs ys zs mass q 
259 1 -0.000112348 0.107182 0.208797 55.845 1.97342e-07 
267 1 -7.28916e-05 0.0357169 0.208781 55.845 3.15981e-07 
269 1 0.0356571 0.0714358 0.208764 55.845 -3.06063e-08 
271 1 0.0713556 0.107185 0.208768 55.845 2.17967e-07 
279 1 0.0356684 2.3076e-05 0.208746 55.845 4.53034e-07 
281 1 0.071448 0.0357187 0.208775 55.845 1.60671e-07 
283 1 0.107191 0.071481 0.208828 55.845 1.77214e-08 
293 1 0.107114 -1.51699e-05 0.208691 55.845 2.42033e-07 
361 1 -6.07841e-05 0.107161 0.124325 55.845 2.03625e-07 
369 1 6.27185e-05 0.0356887 0.124346 55.845 3.49245e-07 
370 1 -7.59248e-05 0.0714218 0.166414 55.845 -1.85364e-07 
371 1 0.0357206 0.0714401 0.124412 55.845 3.50466e-07 
372 1 0.0356687 0.107079 0.166398 55.845 -2.15948e-07 
373 1 0.0714276 0.107114 0.124282 55.845 4.11838e-07 
380 1 4.18767e-05 -4.08463e-05 0.166198 55.845 -2.83841e-07 
381 1 0.0357279 -9.57142e-06 0.124252 55.845 2.13582e-07 
382 1 0.035682 0.0357441 0.166371 55.845 -2.18248e-07 
383 1 0.0714631 0.035736 0.12434 55.845 2.46561e-07 
384 1 0.071472 0.0714367 0.16653 55.845 -2.35185e-07 
385 1 0.10715 0.0713778 0.124297 55.845 3.95049e-07 
386 1 0.107055 0.1071 0.166363 55.845 -1.58071e-07 
394 1 0.0713827 -3.13152e-07 0.166311 55.845 -4.38248e-07 
395 1 0.107109 -5.36939e-05 0.124283 55.845 2.87675e-07 
396 1 0.107153 0.0357267 0.16639 55.845 -2.14626e-07 
463 1 0 0.107143 0.0416667 55.845 6.58034e-08 
471 1 0 0.0357143 0.0416667 55.845 5.94503e-09 
472 1 6.53698e-05 0.0714117 0.083276 55.845 -1.31527e-08 
473 1 0.0357143 0.0714286 0.0416667 55.845 -9.16707e-08 
474 1 0.0356776 0.1071 0.0832198 55.845 -9.8158e-08 
475 1 0.0714286 0.107143 0.0416667 55.845 -7.24351e-08 
482 1 -3.99623e-05 7.67504e-05 0.0831081 55.845 -9.34832e-08 
483 1 0.0357143 0 0.0416667 55.845 2.06873e-07 
484 1 0.0358236 0.0357594 0.083176 55.845 -1.50263e-08 
485 1 0.0714286 0.0357143 0.0416667 55.845 -1.5878e-07 
486 1 0.0714537 0.0713794 0.0832228 55.845 -4.25574e-08 
487 1 0.107143 0.0714286 0.0416667 55.845 -1.841e-07 
488 1 0.107133 0.10712 0.0832206 55.845 -1.22517e-07 
496 1 0.0714699 1.95718e-05 0.0831465 55.845 1.05832e-07 
497 1 0.107143 0 0.0416667 55.845 -9.30376e-08 
498 1 0.107185 0.0357362 0.0831603 55.845 8.76261e-08 
567 1 0 0.0714286 0 55.845 1.56668e-07 
568 1 0.0357143 0.107143 0 55.845 -1.05668e-07 
572 1 0 0 0 55.845 -4.92851e-08 
573 1 0.0357143 0.0357143 0 55.845 2.84859e-08 
574 1 0.0714286 0.0714286 0 55.845 -3.0454e-07 
575 1 0.107143 0.107143 0 55.845 -1.45384e-08 
579 1 0.0714286 0 0 55.845 -7.09091e-08 
580 1 0.107143 0.0357143 0 55.845 -3.81018e-08 
285 1 0.142869 0.107142 0.208817 55.845 3.29835e-07 
295 1 0.142839 0.0356497 0.20875 55.845 2.99991e-07 
297 1 0.178572 0.0713772 0.20883 55.845 1.30354e-07 
299 1 0.214268 0.107135 0.208773 55.845 -1.61357e-07 
307 1 0.178527 2.57416e-05 0.208852 55.845 2.61479e-07 
309 1 0.214283 0.0357692 0.208689 55.845 2.90659e-07 
311 1 0.250005 0.0714568 0.208673 55.845 -8.23429e-09 
387 1 0.1429 0.107066 0.124319 55.845 3.31473e-07 
397 1 0.142841 0.0356047 0.124357 55.845 3.24858e-07 
398 1 0.142896 0.0714214 0.166358 55.845 -2.10166e-07 
399 1 0.178625 0.0713723 0.124287 55.845 7.37014e-08 
400 1 0.178575 0.107135 0.166357 55.845 -3.47471e-07 
401 1 0.214297 0.107209 0.124357 55.845 3.23539e-07 
408 1 0.142839 -3.30124e-05 0.166317 55.845 -4.01568e-07 
409 1 0.178582 -1.83496e-05 0.124276 55.845 2.04191e-07 
410 1 0.178564 0.035673 0.166332 55.845 8.01764e-08 
411 1 0.214279 0.0358089 0.124264 55.845 -1.94127e-08 
412 1 0.214335 0.0714737 0.166461 55.845 -7.81382e-08 
413 1 0.250004 0.0714155 0.124241 55.845 1.01405e-08 
414 1 0.250005 0.107191 0.166304 55.845 -3.9131e-07 
424 1 0.214279 3.88042e-05 0.166318 55.845 -1.67533e-07 
426 1 0.249952 0.0357092 0.16634 55.845 -3.72065e-08 
489 1 0.142857 0.107143 0.0416667 55.845 -6.0909e-08 
499 1 0.142857 0.0357143 0.0416667 55.845 -1.53433e-07 
500 1 0.142838 0.0714121 0.0832191 55.845 -1.20557e-08 
501 1 0.178571 0.0714286 0.0416667 55.845 -5.26992e-08 
502 1 0.17857 0.107105 0.0832331 55.845 2.22703e-07 
503 1 0.214286 0.107143 0.0416667 55.845 -5.96198e-08 
510 1 0.142869 -2.25696e-06 0.0831382 55.845 -4.70137e-08 
511 1 0.178571 0 0.0416667 55.845 -5.60861e-08 
512 1 0.178541 0.0357701 0.0832124 55.845 1.54112e-07 
513 1 0.214286 0.0357143 0.0416667 55.845 1.46254e-07 
514 1 0.214247 0.0715023 0.0831185 55.845 -1.62681e-08 
515 1 0.25 0.0714286 0.0416667 55.845 7.90846e-08 
516 1 0.250026 0.107096 0.0832363 55.845 -1.22047e-07 
526 1 0.214227 -5.96406e-06 0.0831121 55.845 3.58631e-08 
528 1 0.249968 0.0357776 0.0831378 55.845 1.33773e-07 
581 1 0.142857 0.0714286 0 55.845 7.44205e-08 
582 1 0.178571 0.107143 0 55.845 7.26507e-08 
586 1 0.142857 0 0 55.845 3.59718e-08 
587 1 0.178571 0.0357143 0 55.845 -4.17667e-08 
588 1 0.214286 0.0714286 0 55.845 -5.16794e-08 
589 1 0.25 0.107143 0 55.845 -1.07513e-07 
594 1 0.214286 0 0 55.845 -1.92092e-07 
595 1 0.25 0.0357143 0 55.845 -3.90136e-07 
313 1 0.285689 0.107158 0.208818 55.845 1.72593e-07 
323 1 0.249978 1.18923e-05 0.208664 55.845 3.04294e-07 
325 1 0.285738 0.0357128 0.208678 55.845 1.99235e-07 
327 1 0.321476 0.071478 0.208746 55.845 2.29915e-07 
329 1 0.35717 0.107171 0.208668 55.845 1.48259e-07 
337 1 0.3214 1.14616e-05 0.208697 55.845 2.03205e-07 
339 1 0.357172 0.0358084 0.208687 55.845 4.05777e-07 
415 1 0.285699 0.107164 0.124255 55.845 1.7312e-07 
425 1 0.249967 2.4121e-05 0.124229 55.845 1.69548e-07 
427 1 0.285713 0.035782 0.124246 55.845 1.8403e-07 
428 1 0.285697 0.0714698 0.166285 55.845 -4.08455e-07 
429 1 0.321369 0.0713782 0.124421 55.845 3.28613e-07 
430 1 0.321386 0.107164 0.166357 55.845 -3.89068e-07 
431 1 0.357093 0.107133 0.124229 55.845 2.76382e-07 
439 1 0.321348 -4.05833e-05 0.124358 55.845 2.93969e-07 
440 1 0.321408 0.0357211 0.166317 55.845 1.29192e-07 
441 1 0.357161 0.0356917 0.124229 55.845 3.8447e-07 
442 1 0.35713 0.0714741 0.166338 55.845 -1.55513e-07 
517 1 0.285714 0.107143 0.0416667 55.845 -1.74225e-07 
527 1 0.25 0 0.0416667 55.845 -1.31515e-07 
529 1 0.285714 0.0357143 0.0416667 55.845 -1.0447e-07 
530 1 0.285786 0.0714769 0.0831477 55.845 -3.77793e-08 
531 1 0.321429 0.0714286 0.0416667 55.845 -2.82874e-07 
532 1 0.321412 0.107127 0.0831179 55.845 -1.81244e-07 
533 1 0.357143 0.107143 0.0416667 55.845 -2.99144e-07 
603 1 0.357143 0.0714286 0 55.845 -3.1279e-07 
541 1 0.321429 0 0.0416667 55.845 -9.55129e-08 
542 1 0.321431 0.0357131 0.0831432 55.845 -3.57289e-08 
543 1 0.357143 0.0357143 0.0416667 55.845 -2.02934e-07 
544 1 0.357143 0.0714243 0.0831757 55.845 -1.33351e-07 
602 1 0.321429 0.0357143 0 55.845 1.07981e-07 
596 1 0.285714 0.0714286 0 55.845 -2.83795e-07 
597 1 0.321429 0.107143 0 55.845 -2.82504e-07 
612 1 0.464286 0.0357143 0 55.845 3.29506e-09 
611 1 0.428571 0 0 55.845 -3.58006e-07 
610 1 0.464286 0.107143 0 55.845 -1.04863e-07 
609 1 0.428571 0.0714286 0 55.845 -6.0818e-08 
608 1 0.392857 0.0357143 0 55.845 -2.21497e-07 
341 1 0.392887 0.0714731 0.208738 55.845 1.71378e-07 
343 1 0.428515 0.107145 0.208903 55.845 -7.44485e-08 
348 1 0.392776 2.70897e-05 0.208814 55.845 1.1486e-07 
350 1 0.42859 0.035741 0.208719 55.845 2.57232e-07 
352 1 0.464259 0.0713534 0.208854 55.845 2.54517e-07 
355 1 0.464281 8.77373e-06 0.208764 55.845 3.18238e-07 
443 1 0.392858 0.0714669 0.124293 55.845 1.78399e-07 
444 1 0.392881 0.107192 0.166384 55.845 -1.76953e-07 
445 1 0.428608 0.107124 0.124379 55.845 1.45981e-07 
604 1 0.392857 0.107143 0 55.845 -6.52304e-08 
450 1 0.392817 -9.91288e-06 0.124258 55.845 2.54936e-07 
451 1 0.392897 0.0357243 0.166367 55.845 -1.73069e-07 
452 1 0.428504 0.0357583 0.124306 55.845 3.49686e-07 
453 1 0.428574 0.0714151 0.166377 55.845 -1.57465e-07 
454 1 0.464272 0.0714003 0.1243 55.845 7.43903e-08 
455 1 0.464248 0.107047 0.166556 55.845 -2.67467e-07 
456 1 0.428584 8.65459e-05 0.166365 55.845 -1.92091e-07 
457 1 0.46431 2.4002e-05 0.124337 55.845 4.09964e-07 
458 1 0.464253 0.0357727 0.166312 55.845 -5.1694e-07 
545 1 0.392857 0.0714286 0.0416667 55.845 -1.88513e-07 
546 1 0.392898 0.107141 0.0831485 55.845 -1.48826e-07 
547 1 0.428571 0.107143 0.0416667 55.845 2.24074e-08 
552 1 0.392857 0 0.0416667 55.845 -1.36588e-07 
553 1 0.392844 0.035739 0.0831626 55.845 6.9012e-08 
554 1 0.428571 0.0357143 0.0416667 55.845 -5.07509e-08 
555 1 0.428596 0.0714702 0.083174 55.845 -1.3895e-07 
556 1 0.464286 0.0714286 0.0416667 55.845 -4.28625e-08 
557 1 0.464321 0.107162 0.0832761 55.845 3.14731e-07 
558 1 0.428562 2.56561e-05 0.0832719 55.845 2.8049e-08 
559 1 0.464286 0 0.0416667 55.845 -2.49356e-07 
560 1 0.464278 0.0356602 0.0832102 55.845 8.90408e-08 
255 1 -4.91539e-06 0.178625 0.208694 55.845 1.65583e-07 
257 1 0.0357787 0.214401 0.208677 55.845 1.35372e-07 
261 1 0.0356903 0.142922 0.208715 55.845 3.87587e-07 
263 1 0.0713409 0.178605 0.208756 55.845 3.91234e-08 
265 1 0.107184 0.214295 0.208823 55.845 -4.8036e-08 
273 1 0.107112 0.142837 0.20874 55.845 2.41918e-07 
357 1 -1.99363e-05 0.178603 0.124331 55.845 3.61591e-07 
358 1 -1.00274e-05 0.214277 0.166388 55.845 -2.45665e-07 
359 1 0.035713 0.214318 0.124264 55.845 1.3217e-07 
360 1 0.0357459 0.250004 0.166326 55.845 -2.37622e-07 
362 1 8.5068e-06 0.142905 0.166357 55.845 -2.90612e-07 
363 1 0.0357545 0.142833 0.12433 55.845 2.98146e-07 
364 1 0.0357091 0.178649 0.166332 55.845 -2.67299e-07 
365 1 0.0713739 0.178619 0.124335 55.845 4.21824e-07 
366 1 0.0713847 0.214295 0.166319 55.845 -5.00038e-07 
367 1 0.10715 0.214274 0.124295 55.845 3.90215e-08 
368 1 0.107163 0.249996 0.16634 55.845 -3.66551e-07 
374 1 0.0714733 0.142865 0.166361 55.845 -1.08178e-07 
375 1 0.107096 0.142906 0.124204 55.845 4.9505e-07 
376 1 0.107074 0.178574 0.166317 55.845 -3.6677e-07 
459 1 0 0.178571 0.0416667 55.845 -3.70529e-07 
460 1 3.21735e-05 0.214344 0.0830816 55.845 7.96817e-08 
461 1 0.0357143 0.214286 0.0416667 55.845 7.10199e-08 
462 1 0.035795 0.250013 0.0832059 55.845 2.28777e-07 
464 1 1.59578e-05 0.142848 0.0832529 55.845 -6.87014e-08 
465 1 0.0357143 0.142857 0.0416667 55.845 3.93819e-08 
466 1 0.0357183 0.178525 0.0831763 55.845 3.40262e-07 
467 1 0.0714286 0.178571 0.0416667 55.845 1.44918e-07 
468 1 0.0715083 0.2143 0.0830915 55.845 1.31959e-08 
469 1 0.107143 0.214286 0.0416667 55.845 -6.88417e-08 
470 1 0.107159 0.249996 0.0831817 55.845 -6.74238e-08 
476 1 0.0713499 0.142859 0.0831295 55.845 6.38636e-08 
477 1 0.107143 0.142857 0.0416667 55.845 -3.75334e-08 
478 1 0.107054 0.178608 0.0832053 55.845 6.47551e-08 
561 1 0 0.214286 0 55.845 -3.43304e-07 
562 1 0.0357143 0.25 0 55.845 -4.71177e-08 
563 1 0 0.142857 0 55.845 -6.85601e-08 
564 1 0.0357143 0.178571 0 55.845 -1.35075e-07 
565 1 0.0714286 0.214286 0 55.845 1.40492e-07 
566 1 0.107143 0.25 0 55.845 -6.95783e-09 
569 1 0.0714286 0.142857 0 55.845 1.67159e-07 
570 1 0.107143 0.178571 0 55.845 1.02633e-07 
275 1 0.142775 0.178568 0.208668 55.845 2.11758e-07 
277 1 0.178567 0.214205 0.208697 55.845 4.997e-07 
287 1 0.178533 0.142901 0.208802 55.845 1.32658e-07 
289 1 0.21425 0.178598 0.208866 55.845 1.17583e-07 
291 1 0.249998 0.214268 0.208877 55.845 1.14179e-07 
301 1 0.250006 0.142892 0.208785 55.845 9.04055e-08 
377 1 0.142792 0.178555 0.124304 55.845 2.56872e-08 
378 1 0.142859 0.214392 0.166427 55.845 -4.36522e-07 
379 1 0.178514 0.214346 0.124324 55.845 -5.0287e-08 
388 1 0.14279 0.142895 0.166428 55.845 -1.57562e-07 
389 1 0.178573 0.142842 0.124258 55.845 2.54849e-07 
390 1 0.178573 0.178531 0.166302 55.845 -2.1148e-07 
391 1 0.214222 0.178541 0.124341 55.845 2.6453e-07 
392 1 0.214294 0.214297 0.166308 55.845 -1.22362e-07 
393 1 0.249992 0.214328 0.124266 55.845 3.09156e-07 
402 1 0.214252 0.14285 0.166404 55.845 -1.54794e-07 
403 1 0.249996 0.142918 0.124133 55.845 2.14818e-07 
404 1 0.250014 0.178596 0.16628 55.845 -1.32551e-07 
479 1 0.142857 0.178571 0.0416667 55.845 1.40745e-07 
480 1 0.142861 0.214256 0.0831948 55.845 -2.14377e-07 
481 1 0.178571 0.214286 0.0416667 55.845 -1.67199e-07 
490 1 0.142858 0.142785 0.0832421 55.845 -7.46887e-08 
491 1 0.178571 0.142857 0.0416667 55.845 -1.96375e-07 
492 1 0.178534 0.178521 0.0833314 55.845 -7.59802e-08 
493 1 0.214286 0.178571 0.0416667 55.845 -3.03572e-07 
494 1 0.21427 0.214212 0.0831957 55.845 -9.21736e-08 
495 1 0.25 0.214286 0.0416667 55.845 -1.97925e-07 
504 1 0.214248 0.142866 0.083204 55.845 -1.47403e-07 
505 1 0.25 0.142857 0.0416667 55.845 -2.03582e-07 
506 1 0.24998 0.178596 0.0832758 55.845 2.91166e-07 
571 1 0.142857 0.214286 0 55.845 -4.77591e-07 
576 1 0.142857 0.142857 0 55.845 2.03856e-07 
577 1 0.178571 0.178571 0 55.845 -2.52298e-07 
578 1 0.214286 0.214286 0 55.845 -3.18671e-07 
583 1 0.214286 0.142857 0 55.845 1.64092e-07 
584 1 0.25 0.178571 0 55.845 -1.14383e-07 
303 1 0.285646 0.178592 0.20867 55.845 3.15836e-07 
305 1 0.321438 0.214248 0.208756 55.845 1.85728e-07 
315 1 0.321392 0.142858 0.20884 55.845 5.402e-07 
317 1 0.357153 0.178664 0.208692 55.845 1.33831e-07 
405 1 0.285721 0.178601 0.124117 55.845 4.33629e-07 
406 1 0.285725 0.214261 0.166272 55.845 -4.55519e-07 
407 1 0.321356 0.214282 0.12425 55.845 5.26591e-07 
416 1 0.285698 0.142878 0.166277 55.845 -3.80944e-07 
417 1 0.321462 0.142821 0.124164 55.845 3.22444e-07 
418 1 0.321396 0.178607 0.166272 55.845 -2.75856e-07 
419 1 0.357134 0.178578 0.1242 55.845 4.47776e-07 
420 1 0.357124 0.214305 0.166361 55.845 -1.86596e-07 
432 1 0.357137 0.142873 0.16645 55.845 -9.14667e-08 
507 1 0.285714 0.178571 0.0416667 55.845 2.75751e-08 
508 1 0.285708 0.214262 0.0830437 55.845 1.60255e-07 
509 1 0.321429 0.214286 0.0416667 55.845 -1.20836e-07 
518 1 0.285682 0.142871 0.0832243 55.845 7.20501e-08 
519 1 0.321429 0.142857 0.0416667 55.845 -5.85034e-08 
520 1 0.321434 0.178602 0.0831383 55.845 -1.2133e-08 
521 1 0.357143 0.178571 0.0416667 55.845 1.29991e-07 
522 1 0.357165 0.214322 0.0831801 55.845 1.05249e-07 
534 1 0.357179 0.142866 0.0830765 55.845 1.02988e-07 
585 1 0.285714 0.214286 0 55.845 -3.84352e-07 
590 1 0.285714 0.142857 0 55.845 -9.71858e-08 
591 1 0.321429 0.178571 0 55.845 3.97654e-08 
592 1 0.357143 0.214286 0 55.845 -2.75322e-08 
598 1 0.357143 0.142857 0 55.845 -3.73308e-07 
319 1 0.392846 0.214351 0.208724 55.845 7.7272e-08 
321 1 0.428542 0.250056 0.20883 55.845 -9.17411e-08 
331 1 0.392909 0.142896 0.208693 55.845 1.91574e-07 
333 1 0.428657 0.178586 0.20879 55.845 2.49575e-07 
335 1 0.464276 0.214342 0.208717 55.845 3.82364e-08 
345 1 0.46423 0.142857 0.208708 55.845 4.12456e-07 
606 1 0.464286 0.178571 0 55.845 -1.66353e-07 
421 1 0.392798 0.214296 0.124273 55.845 2.84414e-07 
422 1 0.392847 0.250032 0.166342 55.845 -2.6201e-07 
423 1 0.428563 0.250026 0.12415 55.845 2.27308e-07 
433 1 0.392846 0.142881 0.12431 55.845 2.41049e-07 
434 1 0.392843 0.178644 0.166366 55.845 -1.59033e-07 
435 1 0.428509 0.178576 0.124398 55.845 2.06247e-07 
436 1 0.428589 0.214348 0.166339 55.845 -2.58602e-07 
437 1 0.464279 0.214309 0.124331 55.845 1.49298e-07 
605 1 0.428571 0.142857 0 55.845 -9.72119e-08 
446 1 0.428568 0.142881 0.166394 55.845 -1.30683e-07 
447 1 0.46429 0.142798 0.12442 55.845 2.59784e-07 
448 1 0.464244 0.178594 0.166411 55.845 -8.28287e-08 
523 1 0.392857 0.214286 0.0416667 55.845 -2.0898e-07 
524 1 0.392826 0.250009 0.0829691 55.845 1.92638e-08 
525 1 0.428571 0.25 0.0416667 55.845 1.47628e-08 
535 1 0.392857 0.142857 0.0416667 55.845 2.06047e-08 
536 1 0.392836 0.178583 0.0831295 55.845 -3.78024e-08 
537 1 0.428571 0.178571 0.0416667 55.845 -2.45844e-07 
538 1 0.428592 0.214323 0.0832755 55.845 -1.31042e-07 
539 1 0.464286 0.214286 0.0416667 55.845 -1.91412e-07 
548 1 0.428606 0.142819 0.0831069 55.845 -9.80411e-09 
549 1 0.464286 0.142857 0.0416667 55.845 4.85822e-08 
550 1 0.464248 0.178611 0.0833498 55.845 5.68099e-08 
593 1 0.392857 0.25 0 55.845 1.15184e-07 
599 1 0.392857 0.178571 0 55.845 5.02495e-08 
600 1 0.428571 0.214286 0 55.845 1.33459e-07 
3 1 -8.52983e-06 0.107199 0.458253 55.845 -8.46137e-08 
7 1 -4.9192e-05 0.0357202 0.458312 55.845 -1.38623e-07 
8 1 0.035637 0.0713873 0.458258 55.845 -6.38646e-09 
9 1 0.0713184 0.107138 0.458123 55.845 1.35189e-07 
13 1 0.0357093 -3.3161e-05 0.458263 55.845 2.59347e-07 
14 1 0.0713055 0.0357145 0.458187 55.845 1.21243e-08 
15 1 0.107136 0.07146 0.458196 55.845 -4.84418e-08 
20 1 0.107137 1.60653e-05 0.45815 55.845 1.33108e-07 
55 1 -1.18659e-05 0.107202 0.373897 55.845 1.69677e-07 
63 1 -8.773e-05 0.0356847 0.373945 55.845 2.81672e-08 
64 1 6.57341e-06 0.0714635 0.416194 55.845 1.00146e-07 
65 1 0.0356903 0.0714698 0.37394 55.845 3.01231e-07 
66 1 0.0357106 0.107096 0.41628 55.845 -2.0497e-07 
67 1 0.0714446 0.107089 0.373986 55.845 1.55379e-07 
74 1 2.39428e-05 -6.21088e-05 0.416257 55.845 -1.3874e-08 
75 1 0.0356323 -0.000140344 0.373862 55.845 1.04005e-07 
76 1 0.0356145 0.0356166 0.4162 55.845 1.70308e-07 
77 1 0.0713577 0.0356942 0.373887 55.845 2.35554e-07 
78 1 0.0713399 0.0713753 0.416376 55.845 1.55756e-07 
79 1 0.107093 0.0714241 0.373936 55.845 2.3857e-07 
80 1 0.10707 0.107136 0.416359 55.845 -3.22927e-07 
88 1 0.0714012 1.12309e-05 0.416257 55.845 -1.26178e-08 
89 1 0.107103 2.93878e-05 0.373993 55.845 2.10835e-07 
90 1 0.107042 0.0357193 0.416275 55.845 3.26744e-08 
157 1 -1.65809e-05 0.10716 0.291216 55.845 1.85897e-07 
165 1 -4.9761e-05 0.0356956 0.291192 55.845 1.43931e-07 
166 1 -7.96236e-05 0.0714077 0.332343 55.845 -1.37216e-07 
167 1 0.0356894 0.0713791 0.291199 55.845 9.90991e-08 
168 1 0.0357237 0.107082 0.332245 55.845 -1.26305e-07 
169 1 0.0714043 0.107206 0.291235 55.845 3.54921e-08 
176 1 -1.68402e-05 -6.63329e-05 0.332293 55.845 -2.20597e-07 
177 1 0.0357126 -2.97473e-05 0.291167 55.845 3.84456e-08 
178 1 0.0356631 0.0356514 0.332336 55.845 3.33687e-08 
179 1 0.0713793 0.0356742 0.291106 55.845 1.43502e-07 
180 1 0.071389 0.0714051 0.33224 55.845 -4.04281e-07 
181 1 0.107106 0.0714145 0.291182 55.845 2.68252e-07 
182 1 0.107105 0.107158 0.332188 55.845 -1.68933e-07 
190 1 0.0713499 -3.17939e-05 0.332211 55.845 -1.93725e-07 
191 1 0.107055 -9.8544e-05 0.291227 55.845 2.42526e-07 
192 1 0.107058 0.035617 0.332266 55.845 -3.2874e-08 
268 1 -2.44267e-05 0.0714654 0.25034 55.845 -4.53864e-07 
270 1 0.035616 0.10715 0.250383 55.845 -2.21983e-07 
278 1 2.13269e-06 -9.91588e-06 0.250382 55.845 -1.81442e-07 
280 1 0.0356627 0.0357121 0.250435 55.845 -5.52832e-08 
282 1 0.0713366 0.071446 0.250459 55.845 -3.45493e-07 
284 1 0.107096 0.107046 0.250355 55.845 -2.47535e-07 
292 1 0.0714732 -1.15156e-05 0.250319 55.845 1.98545e-07 
294 1 0.107162 0.0356801 0.250413 55.845 -3.27262e-07 
16 1 0.142841 0.107127 0.458169 55.845 -9.74384e-08 
21 1 0.142777 0.0357331 0.45807 55.845 4.44425e-08 
22 1 0.178528 0.0714274 0.458162 55.845 -8.83597e-08 
23 1 0.21428 0.107055 0.458116 55.845 -1.39339e-07 
27 1 0.178464 -1.93175e-05 0.45815 55.845 -8.81831e-08 
28 1 0.21429 0.035636 0.458038 55.845 1.90916e-07 
29 1 0.249967 0.0713981 0.458075 55.845 -4.88614e-07 
81 1 0.142767 0.107112 0.373917 55.845 -6.5746e-09 
91 1 0.142796 0.0357223 0.373974 55.845 9.04767e-08 
92 1 0.142834 0.0714243 0.41619 55.845 -9.77046e-08 
93 1 0.178466 0.0714431 0.373873 55.845 -6.94761e-08 
94 1 0.178526 0.107155 0.416254 55.845 -1.59597e-07 
95 1 0.214287 0.107139 0.37396 55.845 7.64135e-08 
102 1 0.14281 -5.30841e-05 0.416254 55.845 2.08209e-07 
103 1 0.178539 -6.15417e-05 0.374032 55.845 8.48446e-08 
104 1 0.178506 0.0356388 0.416253 55.845 -1.18042e-08 
105 1 0.214277 0.0356945 0.374017 55.845 -2.56943e-08 
106 1 0.21422 0.0713926 0.416157 55.845 3.45773e-08 
107 1 0.250027 0.071443 0.374077 55.845 1.3149e-07 
108 1 0.25003 0.107122 0.416196 55.845 -2.25369e-07 
118 1 0.214245 -5.86424e-05 0.416238 55.845 -7.09982e-08 
120 1 0.249957 0.0356925 0.4162 55.845 -7.1902e-08 
183 1 0.142824 0.107142 0.291082 55.845 -5.13502e-08 
193 1 0.142819 0.0357105 0.291167 55.845 -9.26668e-08 
194 1 0.142739 0.0714395 0.332116 55.845 -2.28867e-07 
195 1 0.17855 0.0713838 0.291227 55.845 1.87366e-07 
196 1 0.178545 0.107103 0.332288 55.845 -2.7577e-07 
197 1 0.214313 0.107114 0.291105 55.845 4.11989e-08 
204 1 0.142764 -3.18414e-05 0.332286 55.845 -1.21245e-07 
205 1 0.178552 -1.8316e-05 0.291077 55.845 3.63494e-07 
206 1 0.178566 0.035704 0.332264 55.845 -1.77808e-07 
207 1 0.21424 0.0357194 0.291219 55.845 1.60641e-07 
208 1 0.214321 0.0714012 0.332327 55.845 -9.46612e-08 
209 1 0.24994 0.0714384 0.291204 55.845 1.2911e-07 
210 1 0.249971 0.107155 0.332287 55.845 -4.88421e-07 
220 1 0.214279 1.01767e-05 0.332257 55.845 -8.00209e-08 
222 1 0.250065 0.0357115 0.332269 55.845 -3.40501e-07 
296 1 0.142887 0.0714206 0.250376 55.845 -4.93153e-07 
298 1 0.178588 0.107137 0.250398 55.845 -3.28091e-07 
306 1 0.142775 -8.19396e-05 0.250447 55.845 -3.25295e-07 
308 1 0.178537 0.0356659 0.250363 55.845 -1.82311e-07 
310 1 0.214286 0.0713921 0.250309 55.845 -4.56911e-07 
312 1 0.250009 0.107163 0.250399 55.845 -1.54442e-07 
322 1 0.21431 4.25501e-06 0.250477 55.845 -1.07361e-08 
324 1 0.250015 0.0357056 0.250302 55.845 -4.33414e-08 
30 1 0.285721 0.107231 0.45822 55.845 -2.28423e-07 
35 1 0.249981 -7.35162e-05 0.458081 55.845 -1.38346e-07 
36 1 0.285696 0.0357087 0.458085 55.845 6.39675e-09 
37 1 0.321441 0.0714485 0.458152 55.845 -1.90465e-07 
38 1 0.357097 0.107141 0.458225 55.845 -3.49055e-07 
42 1 0.321391 3.43677e-05 0.458146 55.845 9.267e-08 
43 1 0.357145 0.0358144 0.45812 55.845 -7.70979e-08 
109 1 0.285713 0.107199 0.37398 55.845 -1.2415e-07 
119 1 0.249937 2.21659e-05 0.373951 55.845 -1.50186e-07 
121 1 0.285744 0.0357189 0.374036 55.845 -1.5939e-07 
122 1 0.285739 0.0714658 0.416267 55.845 -1.32716e-07 
123 1 0.321435 0.071452 0.373969 55.845 -4.33128e-08 
124 1 0.321386 0.107141 0.416236 55.845 -1.12327e-07 
125 1 0.357147 0.107167 0.373893 55.845 1.29432e-07 
133 1 0.321409 4.96325e-05 0.373925 55.845 1.46471e-07 
134 1 0.321377 0.0357698 0.41626 55.845 2.39357e-08 
135 1 0.357123 0.0356555 0.373863 55.845 -2.00858e-07 
136 1 0.357108 0.0714749 0.416345 55.845 -5.13037e-07 
211 1 0.285642 0.107164 0.291281 55.845 -2.2995e-07 
221 1 0.250041 3.7837e-05 0.291115 55.845 1.78128e-07 
223 1 0.285721 0.035674 0.291044 55.845 3.4932e-07 
224 1 0.285729 0.0713846 0.332308 55.845 -1.13177e-07 
225 1 0.321391 0.0714841 0.291196 55.845 2.09884e-07 
226 1 0.321424 0.10711 0.332386 55.845 -3.33624e-07 
227 1 0.35716 0.107179 0.291236 55.845 1.59709e-07 
235 1 0.321418 -3.21389e-06 0.291163 55.845 2.06366e-07 
236 1 0.321434 0.0357274 0.332176 55.845 -2.49291e-07 
237 1 0.357156 0.0357246 0.291112 55.845 2.95317e-07 
238 1 0.357101 0.0714177 0.332348 55.845 -5.18264e-08 
326 1 0.285702 0.071477 0.250316 55.845 -4.05079e-07 
328 1 0.321405 0.107129 0.250409 55.845 -2.40725e-07 
338 1 0.321429 0.0357616 0.250352 55.845 -1.92276e-07 
340 1 0.357171 0.0714916 0.250319 55.845 -1.6726e-07 
44 1 0.392833 0.0714735 0.458198 55.845 -6.13673e-08 
45 1 0.428573 0.107208 0.458179 55.845 -3.53372e-07 
47 1 0.392867 4.56875e-06 0.458148 55.845 -1.03404e-07 
48 1 0.428542 0.0356358 0.458056 55.845 5.74567e-08 
49 1 0.464239 0.071413 0.458035 55.845 3.62403e-08 
50 1 0.464179 -2.64052e-06 0.458191 55.845 -2.97447e-07 
137 1 0.392788 0.0714943 0.373904 55.845 3.78485e-09 
138 1 0.392809 0.107151 0.416235 55.845 8.88016e-09 
139 1 0.428588 0.107238 0.373981 55.845 1.77674e-07 
144 1 0.392796 -4.68174e-05 0.37389 55.845 1.39179e-07 
145 1 0.392901 0.0357334 0.416118 55.845 1.50622e-07 
146 1 0.428558 0.0357169 0.373827 55.845 3.72214e-08 
147 1 0.428538 0.071418 0.416194 55.845 -1.94066e-07 
148 1 0.464292 0.0714423 0.373948 55.845 -3.40357e-08 
149 1 0.46428 0.107137 0.416169 55.845 5.28331e-08 
150 1 0.428542 -3.0726e-05 0.416123 55.845 1.48779e-07 
151 1 0.46429 -2.36173e-05 0.373835 55.845 -1.58713e-07 
152 1 0.464262 0.0356555 0.416198 55.845 5.49051e-08 
239 1 0.392845 0.0714353 0.291273 55.845 -1.28506e-07 
240 1 0.392877 0.107167 0.332204 55.845 -2.48715e-07 
241 1 0.428602 0.107157 0.29115 55.845 -8.36711e-08 
246 1 0.392807 -7.79439e-05 0.291023 55.845 3.4249e-07 
247 1 0.392815 0.0357007 0.332222 55.845 -2.38391e-07 
248 1 0.428588 0.0356507 0.291215 55.845 2.68548e-07 
249 1 0.428573 0.0714561 0.332322 55.845 -4.5954e-07 
250 1 0.464249 0.0714177 0.291194 55.845 1.37931e-07 
251 1 0.464244 0.107125 0.332293 55.845 -2.0811e-07 
252 1 0.42857 -3.81723e-05 0.332232 55.845 -1.14108e-07 
253 1 0.464275 -3.36769e-05 0.291085 55.845 6.21703e-08 
254 1 0.464356 0.0356914 0.332328 55.845 -6.34734e-08 
342 1 0.392863 0.107164 0.250437 55.845 -3.91777e-07 
349 1 0.392874 0.0357597 0.250362 55.845 -1.95093e-07 
351 1 0.428523 0.0714668 0.250412 55.845 -2.9453e-07 
353 1 0.464332 0.10709 0.250423 55.845 -3.83037e-07 
354 1 0.428531 1.53295e-05 0.250355 55.845 -1.5753e-07 
356 1 0.464291 0.0356857 0.250476 55.845 9.6998e-08 
1 1 -3.45633e-05 0.178626 0.45816 55.845 1.23619e-07 
2 1 0.0357329 0.21436 0.458152 55.845 7.93513e-08 
4 1 0.0356341 0.14283 0.458119 55.845 3.25118e-07 
5 1 0.071351 0.178574 0.458174 55.845 3.22589e-08 
6 1 0.107135 0.214346 0.458081 55.845 6.93986e-08 
10 1 0.107121 0.142859 0.458055 55.845 -1.81301e-07 
51 1 -2.67012e-06 0.178661 0.373943 55.845 -1.44514e-07 
52 1 -2.05037e-05 0.214357 0.416277 55.845 2.43136e-09 
53 1 0.0357051 0.214303 0.373968 55.845 1.16837e-09 
54 1 0.0357004 0.250105 0.416307 55.845 1.70214e-07 
56 1 -5.92998e-05 0.142827 0.416198 55.845 7.65122e-08 
57 1 0.0356846 0.142822 0.374044 55.845 1.53502e-07 
58 1 0.0356984 0.178599 0.41634 55.845 6.22081e-08 
59 1 0.0713588 0.178538 0.374043 55.845 2.86648e-07 
60 1 0.0713629 0.214338 0.41624 55.845 8.80817e-08 
61 1 0.107152 0.214331 0.374008 55.845 1.83487e-07 
62 1 0.10713 0.250024 0.416279 55.845 -9.49363e-08 
68 1 0.0713814 0.142865 0.416229 55.845 4.47072e-08 
69 1 0.107131 0.142877 0.374093 55.845 6.96638e-08 
70 1 0.107167 0.178591 0.416304 55.845 1.03396e-09 
153 1 7.30817e-06 0.178582 0.291247 55.845 9.06136e-08 
154 1 2.90619e-05 0.214326 0.332274 55.845 -3.05955e-07 
155 1 0.0357162 0.214311 0.29118 55.845 6.15437e-08 
156 1 0.0356959 0.250053 0.332298 55.845 -7.57001e-08 
158 1 -8.90444e-06 0.142881 0.332378 55.845 -1.72978e-07 
159 1 0.035728 0.142903 0.291306 55.845 8.55577e-08 
160 1 0.0357442 0.178609 0.332309 55.845 -3.79803e-07 
161 1 0.0714246 0.178596 0.291106 55.845 9.49286e-08 
162 1 0.0714548 0.214283 0.332289 55.845 -2.71414e-08 
163 1 0.10712 0.214295 0.291275 55.845 2.30388e-08 
164 1 0.107149 0.250025 0.332294 55.845 -2.50868e-07 
170 1 0.0714058 0.142947 0.332373 55.845 -2.70709e-07 
171 1 0.10715 0.142839 0.291143 55.845 7.07015e-08 
172 1 0.107093 0.178546 0.332233 55.845 -2.05806e-07 
256 1 1.23685e-05 0.214278 0.25043 55.845 -1.899e-07 
258 1 0.0357267 0.250058 0.250451 55.845 -2.0598e-07 
260 1 -7.99727e-06 0.142945 0.250344 55.845 -1.11226e-07 
262 1 0.0357243 0.178616 0.250388 55.845 -1.52808e-08 
264 1 0.0714792 0.214279 0.250331 55.845 -3.14593e-07 
266 1 0.107155 0.250063 0.250442 55.845 -1.95336e-07 
272 1 0.0713841 0.142876 0.250435 55.845 -2.63083e-07 
274 1 0.107134 0.178635 0.250357 55.845 -2.90785e-07 
11 1 0.14285 0.178559 0.45817 55.845 -2.28448e-07 
12 1 0.178536 0.214341 0.458143 55.845 -4.4284e-07 
17 1 0.1785 0.142839 0.458191 55.845 3.96747e-08 
18 1 0.214238 0.178579 0.458129 55.845 6.64947e-08 
19 1 0.250002 0.214365 0.458179 55.845 5.4227e-08 
24 1 0.24993 0.142891 0.45816 55.845 -1.8311e-08 
71 1 0.142786 0.178625 0.373885 55.845 1.78339e-07 
72 1 0.142839 0.214303 0.416195 55.845 1.04318e-07 
73 1 0.178532 0.214338 0.373939 55.845 -7.70053e-08 
82 1 0.142853 0.142876 0.416264 55.845 -1.59172e-07 
83 1 0.178496 0.14287 0.373859 55.845 2.38241e-07 
84 1 0.178515 0.178552 0.416271 55.845 7.03357e-08 
85 1 0.214274 0.178653 0.373977 55.845 3.21916e-08 
86 1 0.214266 0.214299 0.416192 55.845 7.28446e-08 
87 1 0.250005 0.214334 0.373911 55.845 -1.99715e-07 
96 1 0.214256 0.142848 0.416352 55.845 -4.11569e-08 
97 1 0.249928 0.14283 0.37394 55.845 6.371e-08 
98 1 0.25 0.178628 0.416358 55.845 3.31408e-07 
173 1 0.142841 0.178592 0.291188 55.845 1.56615e-08 
174 1 0.142826 0.214306 0.332298 55.845 -2.30528e-07 
175 1 0.178522 0.214348 0.29108 55.845 5.18725e-08 
184 1 0.142808 0.142853 0.332341 55.845 -2.05973e-07 
185 1 0.178588 0.142852 0.291289 55.845 3.85157e-07 
186 1 0.178556 0.178643 0.332229 55.845 6.59733e-08 
187 1 0.214244 0.178609 0.291203 55.845 2.33952e-07 
188 1 0.214217 0.214306 0.332287 55.845 -3.83866e-07 
189 1 0.249933 0.214345 0.291055 55.845 8.30874e-08 
198 1 0.214241 0.14287 0.332383 55.845 -5.08159e-08 
199 1 0.249925 0.142847 0.29115 55.845 4.80599e-08 
200 1 0.249926 0.178632 0.332298 55.845 -2.51463e-07 
276 1 0.142867 0.214364 0.25033 55.845 -1.60436e-07 
286 1 0.142805 0.142863 0.250471 55.845 -2.14308e-07 
288 1 0.178488 0.178597 0.250357 55.845 -7.59069e-08 
290 1 0.214298 0.214297 0.25035 55.845 -1.58275e-08 
300 1 0.214242 0.142885 0.250406 55.845 -8.35475e-08 
302 1 0.250004 0.178604 0.250477 55.845 -2.39319e-07 
25 1 0.285664 0.178634 0.458232 55.845 5.14755e-08 
26 1 0.321326 0.214261 0.458186 55.845 -2.65985e-08 
31 1 0.32137 0.142851 0.458104 55.845 6.83919e-08 
32 1 0.357074 0.178589 0.458257 55.845 3.01739e-08 
99 1 0.285667 0.178592 0.373924 55.845 1.21872e-07 
100 1 0.285747 0.214345 0.416334 55.845 2.78207e-08 
101 1 0.321342 0.21434 0.373953 55.845 -5.5349e-08 
110 1 0.285619 0.14292 0.416245 55.845 -7.97777e-09 
111 1 0.321393 0.142904 0.373894 55.845 1.39578e-07 
112 1 0.321342 0.178559 0.416315 55.845 7.36376e-08 
113 1 0.357141 0.178633 0.373962 55.845 2.31853e-07 
114 1 0.35706 0.214286 0.416291 55.845 3.68372e-07 
126 1 0.357086 0.142921 0.416302 55.845 5.12619e-08 
201 1 0.285735 0.178584 0.291163 55.845 2.39583e-08 
202 1 0.285638 0.214318 0.332333 55.845 -1.90037e-07 
203 1 0.321416 0.214309 0.291208 55.845 -2.09633e-09 
212 1 0.285722 0.142902 0.332297 55.845 -2.39947e-07 
213 1 0.321435 0.142856 0.291152 55.845 6.29816e-08 
214 1 0.321451 0.178631 0.332289 55.845 7.01659e-08 
215 1 0.357102 0.178599 0.291181 55.845 2.63731e-07 