ITEM: TIMESTEP
1300
ITEM: NUMBER OF ATOMS
5880
ITEM: BOX BOUNDS pp pp ff
-27.9342 27.9342
-27.9343 27.9343
0 34.092
ITEM: ATOMS id type xs ys zs mass q 
259 1 4.67696e-05 0.107041 0.208889 55.845 -4.86048e-07 
267 1 4.54532e-06 0.0356573 0.208964 55.845 -3.80112e-07 
269 1 0.0356748 0.0714074 0.208846 55.845 7.40518e-09 
271 1 0.0715023 0.107155 0.208985 55.845 1.02449e-07 
279 1 0.0357673 -5.08436e-05 0.208912 55.845 -6.3024e-07 
281 1 0.0714263 0.0356668 0.208944 55.845 -6.55236e-07 
283 1 0.107183 0.0714379 0.208977 55.845 -3.77044e-07 
293 1 0.107129 -9.36466e-05 0.208973 55.845 -8.161e-07 
361 1 5.66724e-05 0.107196 0.125626 55.845 -5.05124e-07 
369 1 8.9341e-05 0.035687 0.125586 55.845 -2.88894e-07 
370 1 1.9024e-05 0.0714006 0.166925 55.845 1.29233e-06 
371 1 0.0357443 0.071337 0.125611 55.845 -6.61209e-07 
372 1 0.035734 0.107194 0.167041 55.845 8.74439e-07 
373 1 0.0714268 0.107188 0.125629 55.845 -8.7418e-07 
380 1 9.81675e-06 -4.90865e-06 0.167144 55.845 2.99783e-07 
381 1 0.0357675 1.27054e-05 0.125544 55.845 -3.53233e-07 
382 1 0.0357448 0.0356917 0.167146 55.845 1.1985e-06 
383 1 0.0714456 0.0357247 0.125533 55.845 -2.74998e-07 
384 1 0.0714615 0.0713953 0.16707 55.845 8.27732e-07 
385 1 0.107135 0.0714624 0.125508 55.845 -1.50049e-07 
386 1 0.10719 0.1072 0.167017 55.845 6.44806e-08 
394 1 0.07142 4.75852e-05 0.167094 55.845 7.77675e-07 
395 1 0.107142 -2.16464e-05 0.125655 55.845 -3.98653e-07 
396 1 0.107098 0.0356807 0.167174 55.845 9.16653e-07 
463 1 0 0.107143 0.0416667 55.845 -7.30329e-07 
471 1 0 0.0357143 0.0416667 55.845 -4.97519e-07 
472 1 9.7122e-05 0.0714193 0.0844566 55.845 2.34647e-08 
473 1 0.0357143 0.0714286 0.0416667 55.845 -1.59465e-07 
474 1 0.0357165 0.107104 0.0845351 55.845 2.60068e-07 
475 1 0.0714286 0.107143 0.0416667 55.845 -2.28566e-07 
482 1 1.9973e-06 9.03425e-06 0.0844684 55.845 6.47557e-07 
483 1 0.0357143 0 0.0416667 55.845 -4.61402e-07 
484 1 0.0357174 0.035717 0.0845818 55.845 2.70459e-07 
485 1 0.0714286 0.0357143 0.0416667 55.845 -1.08571e-07 
486 1 0.0714166 0.0714734 0.0845462 55.845 2.25593e-07 
487 1 0.107143 0.0714286 0.0416667 55.845 -9.57264e-08 
488 1 0.107166 0.107122 0.0844869 55.845 1.77003e-07 
496 1 0.0714162 6.15559e-06 0.0844423 55.845 9.31095e-07 
497 1 0.107143 0 0.0416667 55.845 -3.03457e-07 
498 1 0.107164 0.0356656 0.0845496 55.845 4.15207e-07 
567 1 0 0.0714286 0 55.845 4.38686e-07 
568 1 0.0357143 0.107143 0 55.845 3.53845e-07 
572 1 0 0 0 55.845 -2.68521e-07 
573 1 0.0357143 0.0357143 0 55.845 -3.59044e-07 
574 1 0.0714286 0.0714286 0 55.845 2.49762e-07 
575 1 0.107143 0.107143 0 55.845 -6.57221e-07 
579 1 0.0714286 0 0 55.845 -7.40186e-07 
580 1 0.107143 0.0357143 0 55.845 -9.86272e-08 
285 1 0.142902 0.107151 0.208834 55.845 -8.35972e-07 
295 1 0.14282 0.0357634 0.209022 55.845 -4.98944e-07 
297 1 0.178613 0.0714711 0.209012 55.845 -5.70333e-07 
299 1 0.214319 0.107125 0.209028 55.845 -2.33021e-07 
307 1 0.178629 3.49416e-05 0.208933 55.845 -2.50467e-07 
309 1 0.214315 0.0357255 0.20893 55.845 -2.61837e-07 
311 1 0.249949 0.0714299 0.208998 55.845 1.15658e-07 
387 1 0.142884 0.107169 0.125476 55.845 1.26238e-07 
397 1 0.142841 0.0357082 0.125634 55.845 -1.48739e-07 
398 1 0.142827 0.0713927 0.167026 55.845 4.80299e-07 
399 1 0.178592 0.0714594 0.125631 55.845 3.11494e-07 
400 1 0.17854 0.107133 0.167012 55.845 2.78232e-07 
401 1 0.214252 0.107146 0.125639 55.845 3.2317e-07 
408 1 0.142836 5.65419e-06 0.167103 55.845 8.35729e-07 
409 1 0.178531 1.9025e-05 0.125578 55.845 -6.47867e-07 
410 1 0.178616 0.0357456 0.167086 55.845 1.24865e-06 
411 1 0.214313 0.03573 0.125634 55.845 -5.58864e-07 
412 1 0.214323 0.071473 0.167011 55.845 8.89169e-07 
413 1 0.25 0.0714936 0.125634 55.845 -2.67538e-07 
414 1 0.249943 0.107167 0.167199 55.845 1.78122e-07 
424 1 0.214263 4.64894e-05 0.166948 55.845 8.99469e-07 
426 1 0.250015 0.0357697 0.166979 55.845 1.20295e-06 
489 1 0.142857 0.107143 0.0416667 55.845 2.28617e-07 
499 1 0.142857 0.0357143 0.0416667 55.845 -2.20665e-07 
500 1 0.142908 0.0713425 0.084396 55.845 5.18843e-07 
501 1 0.178571 0.0714286 0.0416667 55.845 -4.73119e-07 
502 1 0.178565 0.107134 0.0845477 55.845 3.39025e-07 
503 1 0.214286 0.107143 0.0416667 55.845 -2.36846e-07 
510 1 0.142858 4.02074e-05 0.0844929 55.845 9.00118e-09 
511 1 0.178571 0 0.0416667 55.845 -3.48144e-07 
512 1 0.178596 0.0356838 0.0844705 55.845 -3.30113e-07 
513 1 0.214286 0.0357143 0.0416667 55.845 -5.03121e-07 
514 1 0.214344 0.0713788 0.0844997 55.845 -1.36555e-07 
515 1 0.25 0.0714286 0.0416667 55.845 -4.43783e-07 
516 1 0.249989 0.107122 0.0845236 55.845 -4.18476e-07 
526 1 0.214248 -2.46077e-06 0.0845431 55.845 5.90437e-07 
528 1 0.249994 0.0357354 0.0845281 55.845 6.62851e-08 
581 1 0.142857 0.0714286 0 55.845 -6.2172e-07 
582 1 0.178571 0.107143 0 55.845 2.55854e-08 
586 1 0.142857 0 0 55.845 7.34286e-07 
587 1 0.178571 0.0357143 0 55.845 6.54176e-07 
588 1 0.214286 0.0714286 0 55.845 4.54788e-07 
589 1 0.25 0.107143 0 55.845 3.27736e-07 
594 1 0.214286 0 0 55.845 -2.94641e-07 
595 1 0.25 0.0357143 0 55.845 1.29018e-07 
313 1 0.285709 0.107166 0.208997 55.845 -9.34245e-08 
323 1 0.250001 5.15915e-05 0.208953 55.845 -8.17842e-07 
325 1 0.285731 0.0356481 0.208961 55.845 -1.72276e-07 
327 1 0.321501 0.0714277 0.208926 55.845 -1.01611e-06 
329 1 0.357199 0.107129 0.208784 55.845 -6.7399e-07 
337 1 0.321338 1.06586e-05 0.208972 55.845 -7.41623e-07 
339 1 0.357157 0.0356865 0.208844 55.845 -8.86129e-07 
415 1 0.285744 0.107191 0.125635 55.845 -8.15243e-07 
425 1 0.250015 -2.49444e-05 0.125541 55.845 -6.39017e-07 
427 1 0.285723 0.0357548 0.125732 55.845 -2.37491e-07 
428 1 0.285689 0.0714362 0.16715 55.845 5.84036e-07 
429 1 0.321338 0.0714404 0.125674 55.845 -9.25359e-07 
430 1 0.321421 0.107182 0.167132 55.845 5.09307e-07 
431 1 0.357103 0.107188 0.125679 55.845 -3.67058e-10 
439 1 0.321378 2.94263e-06 0.12568 55.845 -3.53498e-07 
440 1 0.321408 0.0356708 0.167072 55.845 8.3745e-07 
441 1 0.357094 0.0357312 0.125558 55.845 -8.35294e-07 
442 1 0.357106 0.0713897 0.166995 55.845 8.21191e-07 
517 1 0.285714 0.107143 0.0416667 55.845 -3.41096e-07 
527 1 0.25 0 0.0416667 55.845 -6.69005e-07 
529 1 0.285714 0.0357143 0.0416667 55.845 -9.60433e-08 
530 1 0.285677 0.0714414 0.0845624 55.845 -5.294e-08 
531 1 0.321429 0.0714286 0.0416667 55.845 1.8614e-07 
532 1 0.321418 0.10717 0.0844787 55.845 5.49456e-07 
533 1 0.357143 0.107143 0.0416667 55.845 -1.63548e-07 
603 1 0.357143 0.0714286 0 55.845 -4.13291e-07 
541 1 0.321429 0 0.0416667 55.845 -3.18474e-07 
542 1 0.321403 0.0357601 0.0845033 55.845 9.93e-07 
543 1 0.357143 0.0357143 0.0416667 55.845 -2.34154e-07 
544 1 0.357079 0.0714698 0.0845721 55.845 7.88885e-07 
602 1 0.321429 0.0357143 0 55.845 -1.02285e-07 
596 1 0.285714 0.0714286 0 55.845 6.59661e-07 
597 1 0.321429 0.107143 0 55.845 -9.09176e-07 
612 1 0.464286 0.0357143 0 55.845 3.57368e-07 
611 1 0.428571 0 0 55.845 5.30319e-07 
610 1 0.464286 0.107143 0 55.845 -5.80749e-08 
609 1 0.428571 0.0714286 0 55.845 9.66148e-08 
608 1 0.392857 0.0357143 0 55.845 2.7312e-07 
341 1 0.392821 0.0715251 0.208851 55.845 -3.40518e-07 
343 1 0.428531 0.107182 0.208922 55.845 -2.57038e-07 
348 1 0.392776 -3.1261e-06 0.208873 55.845 -5.40968e-07 
350 1 0.428572 0.0356938 0.208851 55.845 -1.76929e-07 
352 1 0.464272 0.0714521 0.208994 55.845 -1.05236e-07 
355 1 0.464194 -2.02469e-05 0.208879 55.845 -4.74844e-07 
443 1 0.392858 0.0714449 0.125493 55.845 -3.28616e-07 
444 1 0.392832 0.107181 0.166925 55.845 5.65845e-07 
445 1 0.428575 0.107159 0.125588 55.845 -5.92892e-07 
604 1 0.392857 0.107143 0 55.845 -2.21667e-07 
450 1 0.392829 7.03597e-05 0.125744 55.845 -4.75851e-08 
451 1 0.392856 0.0357365 0.166928 55.845 1.22395e-06 
452 1 0.428637 0.035743 0.12551 55.845 1.38593e-08 
453 1 0.428575 0.0714236 0.167141 55.845 9.18025e-07 
454 1 0.464296 0.0714279 0.12559 55.845 -8.10397e-07 
455 1 0.464289 0.107121 0.167017 55.845 1.09147e-07 
456 1 0.428551 2.52618e-05 0.167063 55.845 8.85291e-07 
457 1 0.464277 -8.05863e-05 0.125711 55.845 6.59921e-08 
458 1 0.464332 0.0357625 0.167061 55.845 1.11485e-06 
545 1 0.392857 0.0714286 0.0416667 55.845 -7.71305e-07 
546 1 0.392831 0.107124 0.0845333 55.845 1.51759e-07 
547 1 0.428571 0.107143 0.0416667 55.845 -4.65923e-07 
552 1 0.392857 0 0.0416667 55.845 -5.47878e-07 
553 1 0.392837 0.0357236 0.0845417 55.845 1.62112e-07 
554 1 0.428571 0.0357143 0.0416667 55.845 -4.12656e-07 
555 1 0.428611 0.071405 0.0845365 55.845 -1.56181e-07 
556 1 0.464286 0.0714286 0.0416667 55.845 -3.17157e-07 
557 1 0.464315 0.107083 0.084523 55.845 5.23081e-07 
558 1 0.428576 1.6951e-05 0.084582 55.845 1.17579e-07 
559 1 0.464286 0 0.0416667 55.845 -5.57876e-07 
560 1 0.464289 0.0356411 0.0845762 55.845 -1.42745e-07 
255 1 -2.03346e-05 0.178548 0.208852 55.845 -8.33186e-07 
257 1 0.0357421 0.214247 0.209009 55.845 -3.74997e-07 
261 1 0.0357037 0.142888 0.208875 55.845 -7.80843e-07 
263 1 0.0714953 0.178611 0.208876 55.845 -3.9719e-07 
265 1 0.107149 0.214247 0.208908 55.845 -3.12067e-07 
273 1 0.107135 0.142873 0.208929 55.845 -2.29229e-07 
357 1 -5.93937e-06 0.178581 0.125618 55.845 -9.81392e-07 
358 1 -6.01207e-05 0.214333 0.167046 55.845 2.39797e-07 
359 1 0.0357155 0.214268 0.125701 55.845 -6.2748e-07 
360 1 0.0357085 0.24996 0.167157 55.845 6.50466e-07 
362 1 1.81014e-05 0.142825 0.167052 55.845 6.09118e-07 
363 1 0.0357194 0.142885 0.125614 55.845 -7.67405e-07 
364 1 0.0356748 0.178627 0.167141 55.845 8.32468e-07 
365 1 0.0714057 0.178562 0.125664 55.845 -4.74334e-07 
366 1 0.0714517 0.214369 0.166968 55.845 4.32058e-07 
367 1 0.107114 0.214328 0.125648 55.845 -5.06803e-07 
368 1 0.107144 0.249992 0.167164 55.845 3.88106e-07 
374 1 0.0714594 0.142862 0.167042 55.845 1.95839e-07 
375 1 0.107067 0.142878 0.125648 55.845 7.13063e-08 
376 1 0.10713 0.178566 0.166944 55.845 1.9873e-07 
459 1 0 0.178571 0.0416667 55.845 1.58181e-08 
460 1 0.000116728 0.214274 0.0844857 55.845 1.15976e-06 
461 1 0.0357143 0.214286 0.0416667 55.845 3.55339e-07 
462 1 0.0356964 0.250001 0.0845412 55.845 7.01006e-07 
464 1 -8.43287e-07 0.142858 0.0845298 55.845 1.17036e-06 
465 1 0.0357143 0.142857 0.0416667 55.845 6.93549e-08 
466 1 0.0357426 0.178591 0.0845875 55.845 8.43583e-07 
467 1 0.0714286 0.178571 0.0416667 55.845 -4.85089e-07 
468 1 0.0714233 0.214323 0.0845708 55.845 9.16152e-07 
469 1 0.107143 0.214286 0.0416667 55.845 8.8004e-08 
470 1 0.107104 0.250007 0.0845532 55.845 3.35189e-07 
476 1 0.0714423 0.142853 0.0844835 55.845 1.67129e-07 
477 1 0.107143 0.142857 0.0416667 55.845 -1.03389e-07 
478 1 0.107158 0.17861 0.0845632 55.845 2.06632e-07 
561 1 0 0.214286 0 55.845 -2.0828e-07 
562 1 0.0357143 0.25 0 55.845 -2.13553e-07 
563 1 0 0.142857 0 55.845 -3.62204e-07 
564 1 0.0357143 0.178571 0 55.845 -9.79576e-07 
565 1 0.0714286 0.214286 0 55.845 -3.42853e-07 
566 1 0.107143 0.25 0 55.845 -1.48242e-07 
569 1 0.0714286 0.142857 0 55.845 -5.11403e-07 
570 1 0.107143 0.178571 0 55.845 -2.59401e-07 
275 1 0.14287 0.178597 0.208961 55.845 2.1397e-07 
277 1 0.178533 0.21424 0.209029 55.845 9.34422e-07 
287 1 0.178595 0.142852 0.209001 55.845 -4.75458e-08 
289 1 0.21424 0.17858 0.20893 55.845 2.76017e-07 
291 1 0.25001 0.214221 0.208967 55.845 -3.76588e-08 
301 1 0.249986 0.142963 0.209044 55.845 -6.3984e-08 
377 1 0.142851 0.178598 0.125541 55.845 1.58084e-07 
378 1 0.142789 0.214256 0.166949 55.845 3.91144e-07 
379 1 0.178561 0.214257 0.125493 55.845 -3.63362e-07 
388 1 0.14291 0.142854 0.167004 55.845 -1.57856e-07 
389 1 0.178596 0.142854 0.125727 55.845 2.24245e-07 
390 1 0.178567 0.178598 0.167013 55.845 -3.5857e-08 
391 1 0.214335 0.178492 0.125496 55.845 -4.28714e-07 
392 1 0.214285 0.214197 0.167143 55.845 6.49987e-07 
393 1 0.250049 0.214261 0.1256 55.845 -5.14667e-07 
402 1 0.214316 0.14288 0.167164 55.845 3.5489e-08 
403 1 0.250034 0.142875 0.125614 55.845 -1.1943e-07 
404 1 0.250037 0.178553 0.167097 55.845 1.03789e-08 
479 1 0.142857 0.178571 0.0416667 55.845 2.9034e-07 
480 1 0.142916 0.214273 0.0844539 55.845 1.88267e-07 
481 1 0.178571 0.214286 0.0416667 55.845 -3.27727e-07 
490 1 0.142816 0.14283 0.084566 55.845 2.78911e-07 
491 1 0.178571 0.142857 0.0416667 55.845 -9.59262e-08 
492 1 0.178604 0.178552 0.0844043 55.845 -7.29743e-07 
493 1 0.214286 0.178571 0.0416667 55.845 -8.35981e-08 
494 1 0.214285 0.214245 0.0844953 55.845 6.39006e-07 
495 1 0.25 0.214286 0.0416667 55.845 3.18773e-07 
504 1 0.214294 0.142857 0.0845533 55.845 -2.12056e-07 
505 1 0.25 0.142857 0.0416667 55.845 2.01995e-07 
506 1 0.250014 0.178558 0.0844676 55.845 9.45964e-07 
571 1 0.142857 0.214286 0 55.845 9.4127e-08 
576 1 0.142857 0.142857 0 55.845 -8.43631e-07 
577 1 0.178571 0.178571 0 55.845 -3.12729e-07 
578 1 0.214286 0.214286 0 55.845 -6.02203e-07 
583 1 0.214286 0.142857 0 55.845 -1.58775e-07 
584 1 0.25 0.178571 0 55.845 -5.50718e-07 
303 1 0.285711 0.178558 0.209157 55.845 -4.70419e-07 
305 1 0.321448 0.214254 0.208933 55.845 -3.18423e-07 
315 1 0.321453 0.14292 0.208974 55.845 -3.07525e-07 
317 1 0.357145 0.178586 0.208892 55.845 1.60797e-07 
405 1 0.285681 0.178592 0.125626 55.845 3.28576e-08 
406 1 0.28574 0.214211 0.16719 55.845 -1.9158e-07 
407 1 0.321413 0.214233 0.125582 55.845 -3.57483e-07 
416 1 0.285724 0.142901 0.167199 55.845 3.73612e-08 
417 1 0.321429 0.14284 0.125678 55.845 3.47943e-07 
418 1 0.321391 0.178533 0.167117 55.845 -5.33596e-07 
419 1 0.35713 0.178531 0.12566 55.845 -1.66737e-07 
420 1 0.357125 0.214274 0.166973 55.845 -2.69601e-07 
432 1 0.357172 0.142861 0.167176 55.845 3.96011e-07 
507 1 0.285714 0.178571 0.0416667 55.845 5.53559e-07 
508 1 0.285677 0.214311 0.084574 55.845 5.00219e-07 
509 1 0.321429 0.214286 0.0416667 55.845 -4.56387e-08 
518 1 0.285757 0.14289 0.0846076 55.845 3.20247e-07 
519 1 0.321429 0.142857 0.0416667 55.845 6.20271e-08 
520 1 0.321372 0.178603 0.0845141 55.845 1.48308e-07 
521 1 0.357143 0.178571 0.0416667 55.845 1.24568e-07 
522 1 0.35711 0.214264 0.084548 55.845 4.46191e-09 
534 1 0.357085 0.142862 0.084509 55.845 3.34968e-07 
585 1 0.285714 0.214286 0 55.845 -7.81046e-07 
590 1 0.285714 0.142857 0 55.845 -7.08228e-07 
591 1 0.321429 0.178571 0 55.845 -4.3019e-07 
592 1 0.357143 0.214286 0 55.845 6.69589e-07 
598 1 0.357143 0.142857 0 55.845 -3.40647e-07 
319 1 0.392832 0.214319 0.20905 55.845 1.8338e-08 
321 1 0.428549 0.25 0.208938 55.845 -6.78903e-07 
331 1 0.39291 0.142845 0.208965 55.845 -9.86146e-08 
333 1 0.428578 0.178606 0.208964 55.845 4.58013e-07 
335 1 0.464264 0.214257 0.208962 55.845 7.78358e-08 
345 1 0.464282 0.142912 0.208948 55.845 -1.07726e-07 
606 1 0.464286 0.178571 0 55.845 -4.67056e-07 
421 1 0.392888 0.214296 0.12564 55.845 -3.69551e-07 
422 1 0.392835 0.249985 0.167093 55.845 6.77803e-07 
423 1 0.42858 0.250012 0.125601 55.845 3.33937e-07 
433 1 0.392816 0.142942 0.125544 55.845 -2.70576e-07 
434 1 0.392835 0.178595 0.167075 55.845 7.02604e-08 
435 1 0.428532 0.178596 0.12554 55.845 -9.10714e-08 
436 1 0.428624 0.214273 0.167084 55.845 4.28018e-07 
437 1 0.464325 0.214246 0.125659 55.845 2.30558e-07 
605 1 0.428571 0.142857 0 55.845 -4.09867e-07 
446 1 0.428595 0.142936 0.167056 55.845 4.84797e-07 
447 1 0.464252 0.14282 0.125619 55.845 -3.23649e-07 
448 1 0.464327 0.178474 0.167005 55.845 4.85691e-07 
523 1 0.392857 0.214286 0.0416667 55.845 -1.09447e-07 
524 1 0.392843 0.249987 0.0844768 55.845 5.36321e-07 
525 1 0.428571 0.25 0.0416667 55.845 -2.98143e-07 
535 1 0.392857 0.142857 0.0416667 55.845 1.86843e-08 
536 1 0.392864 0.178632 0.0845151 55.845 -3.91992e-07 
537 1 0.428571 0.178571 0.0416667 55.845 -2.58885e-07 
538 1 0.428595 0.214369 0.0845617 55.845 2.41525e-07 
539 1 0.464286 0.214286 0.0416667 55.845 -1.21014e-07 
548 1 0.428554 0.142903 0.0845522 55.845 -9.71649e-08 
549 1 0.464286 0.142857 0.0416667 55.845 5.58626e-08 
550 1 0.464243 0.178537 0.084586 55.845 4.5955e-07 
593 1 0.392857 0.25 0 55.845 1.24259e-09 
599 1 0.392857 0.178571 0 55.845 3.98935e-07 
600 1 0.428571 0.214286 0 55.845 -3.67867e-07 
3 1 2.68277e-05 0.107128 0.462607 55.845 -1.8922e-07 
7 1 5.44703e-06 0.0356775 0.462623 55.845 2.51446e-07 
8 1 0.0357838 0.0714305 0.462599 55.845 -7.07745e-08 
9 1 0.071416 0.10715 0.462564 55.845 -2.34946e-07 
13 1 0.0357841 -1.52055e-05 0.462634 55.845 -1.5036e-07 
14 1 0.0714708 0.0357114 0.462613 55.845 2.20744e-08 
15 1 0.107151 0.071423 0.462513 55.845 3.46214e-07 
20 1 0.107168 -4.35671e-06 0.462585 55.845 -5.58282e-07 
55 1 -6.37399e-06 0.107109 0.378437 55.845 6.87185e-08 
63 1 -1.526e-05 0.0356681 0.378438 55.845 2.45987e-07 
64 1 1.80767e-05 0.0713844 0.420777 55.845 -4.78712e-08 
65 1 0.0357112 0.0714534 0.378514 55.845 -1.0396e-07 
66 1 0.0356826 0.107088 0.42083 55.845 5.63987e-07 
67 1 0.0714083 0.107143 0.378391 55.845 -5.57535e-07 
74 1 2.54434e-05 -5.78191e-05 0.420913 55.845 1.68723e-07 
75 1 0.0357066 1.15997e-05 0.378474 55.845 2.2792e-07 
76 1 0.0357363 0.0356798 0.420731 55.845 3.19843e-07 
77 1 0.0714411 0.0357294 0.378498 55.845 -2.10393e-07 
78 1 0.0713995 0.0714517 0.420801 55.845 1.48488e-07 
79 1 0.107158 0.0714307 0.378314 55.845 -1.28165e-06 
80 1 0.107114 0.107169 0.420659 55.845 6.11931e-07 
88 1 0.0714644 1.81022e-05 0.420759 55.845 8.28629e-07 
89 1 0.107133 -1.20529e-05 0.378459 55.845 4.42863e-08 
90 1 0.107151 0.035803 0.420767 55.845 -2.74577e-08 
157 1 1.47479e-05 0.107206 0.293619 55.845 -2.47702e-07 
165 1 -2.23163e-05 0.035649 0.293521 55.845 1.15609e-07 
166 1 5.77968e-06 0.0714057 0.336028 55.845 -6.83024e-09 
167 1 0.035737 0.0714024 0.293487 55.845 2.396e-07 
168 1 0.0357039 0.107134 0.336078 55.845 -3.25222e-07 
169 1 0.0714703 0.107141 0.293436 55.845 -2.18879e-07 
176 1 4.76273e-05 -7.82982e-05 0.336164 55.845 1.97527e-07 
177 1 0.0357114 -1.28667e-05 0.293621 55.845 -3.90985e-08 
178 1 0.0357248 0.035767 0.3362 55.845 3.623e-07 
179 1 0.0713678 0.0356875 0.293614 55.845 -4.97352e-07 
180 1 0.0713857 0.0713917 0.336102 55.845 2.67227e-07 
181 1 0.10715 0.0714333 0.29361 55.845 3.13311e-07 
182 1 0.107131 0.107195 0.336011 55.845 1.07948e-06 
190 1 0.0714208 3.54779e-05 0.336173 55.845 9.30119e-07 
191 1 0.107101 -6.16515e-05 0.293552 55.845 -5.33071e-07 
192 1 0.107077 0.0357273 0.33613 55.845 4.30226e-07 
268 1 3.77596e-05 0.0714159 0.251213 55.845 2.30822e-07 
270 1 0.0357227 0.10712 0.251153 55.845 4.9259e-07 
278 1 -4.15918e-05 -4.04945e-05 0.251244 55.845 7.13108e-08 
280 1 0.0356849 0.0356852 0.25119 55.845 2.17578e-07 
282 1 0.0714305 0.0714162 0.251234 55.845 3.47569e-07 
284 1 0.107178 0.107113 0.251214 55.845 4.04272e-07 
292 1 0.0713503 -1.41642e-05 0.251163 55.845 -1.7296e-07 
294 1 0.107093 0.0356671 0.251394 55.845 1.22113e-07 
16 1 0.142882 0.107164 0.462495 55.845 -3.96754e-07 
21 1 0.142848 0.0356708 0.462603 55.845 -2.18634e-07 
22 1 0.178618 0.0714049 0.462534 55.845 -7.11922e-07 
23 1 0.214269 0.107142 0.462548 55.845 -3.65172e-07 
27 1 0.178551 -2.83363e-05 0.462576 55.845 9.54085e-08 
28 1 0.214275 0.0357414 0.462505 55.845 2.956e-07 
29 1 0.250007 0.0714372 0.462585 55.845 6.67055e-07 
81 1 0.14287 0.1072 0.378348 55.845 -8.90194e-07 
91 1 0.142924 0.0356567 0.378397 55.845 -3.12022e-07 
92 1 0.142856 0.071425 0.42077 55.845 -2.66122e-07 
93 1 0.178622 0.071373 0.378292 55.845 -3.13163e-07 
94 1 0.17852 0.107104 0.420761 55.845 2.5717e-07 
95 1 0.21425 0.107122 0.378512 55.845 -1.87653e-07 
102 1 0.142857 -2.29695e-05 0.420742 55.845 -3.53001e-07 
103 1 0.178587 -5.35603e-05 0.378391 55.845 3.90471e-07 
104 1 0.178565 0.0356418 0.420777 55.845 -4.86224e-07 
105 1 0.214293 0.0356938 0.378411 55.845 8.20271e-07 
106 1 0.214312 0.0713746 0.420798 55.845 -2.49332e-08 
107 1 0.250006 0.0714999 0.378494 55.845 2.54689e-07 
108 1 0.250024 0.10716 0.420766 55.845 6.84596e-07 
118 1 0.214258 4.6368e-05 0.420865 55.845 -3.11769e-07 
120 1 0.250046 0.0357552 0.420804 55.845 -1.8783e-07 
183 1 0.142897 0.107211 0.293556 55.845 -1.05169e-08 
193 1 0.142816 0.0357596 0.29358 55.845 5.47965e-08 
194 1 0.142871 0.0714176 0.336165 55.845 1.44077e-06 
195 1 0.178642 0.0714345 0.293578 55.845 1.54993e-07 
196 1 0.178565 0.107149 0.336111 55.845 1.0192e-06 
197 1 0.214265 0.10719 0.293529 55.845 1.34801e-07 
204 1 0.142835 6.5204e-05 0.336053 55.845 1.25179e-07 
205 1 0.178626 4.32417e-05 0.293631 55.845 3.70705e-08 
206 1 0.178602 0.035737 0.33605 55.845 4.52798e-08 
207 1 0.214354 0.035732 0.293593 55.845 -3.15774e-07 
208 1 0.214292 0.0714934 0.336065 55.845 -1.86788e-07 
209 1 0.250007 0.0714156 0.293524 55.845 2.87946e-07 
210 1 0.250004 0.107165 0.336121 55.845 -6.62439e-08 
220 1 0.214334 -2.25505e-05 0.336086 55.845 1.40487e-08 
222 1 0.250026 0.0357035 0.336234 55.845 -3.4086e-07 
296 1 0.142866 0.07145 0.251266 55.845 -9.12414e-08 
298 1 0.178612 0.107189 0.251261 55.845 -2.5554e-08 
306 1 0.14288 3.67999e-05 0.251292 55.845 2.61144e-07 
308 1 0.178607 0.0356906 0.2512 55.845 -3.97938e-07 
310 1 0.214334 0.0714269 0.251218 55.845 -2.47256e-07 
312 1 0.250038 0.107169 0.251255 55.845 6.72924e-08 
322 1 0.214244 -1.34352e-05 0.251154 55.845 -1.98767e-07 
324 1 0.249978 0.0357154 0.251117 55.845 -9.85084e-08 
30 1 0.285774 0.107223 0.462538 55.845 -2.89849e-07 
35 1 0.249994 2.1756e-05 0.462539 55.845 2.67123e-07 
36 1 0.285675 0.035767 0.46252 55.845 5.83441e-07 
37 1 0.321504 0.0715198 0.462619 55.845 3.40465e-07 
38 1 0.357199 0.107119 0.462676 55.845 -2.63752e-07 
42 1 0.321474 2.76056e-05 0.462683 55.845 5.80602e-07 
43 1 0.357224 0.0357697 0.462595 55.845 4.67796e-07 
109 1 0.285704 0.107171 0.378508 55.845 -7.13383e-07 
119 1 0.25003 -1.64402e-05 0.378485 55.845 6.78671e-07 
121 1 0.285748 0.0357902 0.378473 55.845 3.00762e-07 
122 1 0.285765 0.0715345 0.420768 55.845 1.56462e-07 
123 1 0.321439 0.0714394 0.378373 55.845 -2.82728e-07 
124 1 0.321464 0.107201 0.420792 55.845 3.9007e-07 
125 1 0.357167 0.107221 0.37844 55.845 -4.23794e-07 
133 1 0.321373 4.52554e-05 0.37849 55.845 -2.492e-07 
134 1 0.321479 0.0357181 0.420846 55.845 -4.92278e-08 
135 1 0.357122 0.0357457 0.378456 55.845 -9.91191e-08 
136 1 0.357146 0.0714314 0.420699 55.845 -1.93409e-07 
211 1 0.285704 0.107178 0.293582 55.845 -4.78758e-08 
221 1 0.250054 1.11705e-05 0.293514 55.845 3.24853e-08 
223 1 0.285712 0.0357293 0.293509 55.845 3.90303e-07 
224 1 0.285704 0.0714148 0.336104 55.845 -1.42717e-10 
225 1 0.32143 0.07148 0.293509 55.845 1.3959e-07 
226 1 0.3214 0.10716 0.336119 55.845 6.87721e-07 
227 1 0.357159 0.107209 0.293538 55.845 -4.75653e-07 
235 1 0.321476 4.645e-05 0.293563 55.845 1.30102e-07 
236 1 0.32147 0.0357294 0.336115 55.845 5.47049e-07 
237 1 0.357153 0.0358102 0.293546 55.845 4.49174e-08 
238 1 0.357174 0.071502 0.336136 55.845 9.79193e-07 
326 1 0.285688 0.0714454 0.251223 55.845 6.25324e-07 
328 1 0.321412 0.107234 0.251175 55.845 2.40823e-07 
338 1 0.321437 0.0357636 0.25128 55.845 1.02884e-06 
340 1 0.357121 0.0714898 0.251172 55.845 5.24169e-07 
44 1 0.392874 0.0714457 0.462585 55.845 -1.10272e-07 
45 1 0.428555 0.107141 0.462594 55.845 9.76087e-08 
47 1 0.392868 -1.59176e-07 0.462577 55.845 1.17432e-07 
48 1 0.428572 0.0357005 0.462541 55.845 -2.98178e-07 
49 1 0.464256 0.0713249 0.462532 55.845 5.23735e-07 
50 1 0.464268 -1.79034e-05 0.462591 55.845 -1.69204e-07 
137 1 0.392846 0.071456 0.378371 55.845 -4.79751e-07 
138 1 0.392849 0.107137 0.420765 55.845 4.15921e-07 
139 1 0.428583 0.107152 0.378417 55.845 -9.33433e-08 
144 1 0.392872 -4.7094e-05 0.37846 55.845 5.80433e-07 
145 1 0.392956 0.0357029 0.420791 55.845 -5.1557e-07 
146 1 0.42859 0.0356894 0.378296 55.845 3.05567e-07 
147 1 0.428601 0.0714153 0.420627 55.845 -5.28192e-07 
148 1 0.464308 0.0714743 0.378338 55.845 -2.26784e-07 
149 1 0.464313 0.107143 0.420767 55.845 -9.29104e-08 
150 1 0.428572 1.90537e-05 0.42058 55.845 4.35489e-08 
151 1 0.464275 -1.69601e-05 0.378349 55.845 9.56517e-07 
152 1 0.464277 0.035683 0.420651 55.845 -2.28876e-07 
239 1 0.392907 0.071452 0.293589 55.845 3.46297e-07 
240 1 0.39285 0.10722 0.33616 55.845 4.16718e-07 
241 1 0.428513 0.107149 0.293477 55.845 -1.51273e-07 
246 1 0.392816 -1.67797e-05 0.293579 55.845 -1.41722e-07 
247 1 0.392804 0.0356194 0.336148 55.845 4.17472e-07 
248 1 0.428533 0.0357099 0.293614 55.845 9.72801e-08 
249 1 0.428597 0.0714843 0.336077 55.845 -1.87651e-07 
250 1 0.464298 0.0713706 0.293511 55.845 1.95141e-07 
251 1 0.464283 0.107196 0.336115 55.845 -2.50292e-07 
252 1 0.428538 -1.50483e-05 0.33604 55.845 8.42398e-07 
253 1 0.464296 -2.24491e-05 0.293545 55.845 -3.42471e-07 
254 1 0.464335 0.0357273 0.336054 55.845 -1.5696e-07 
342 1 0.392837 0.107165 0.251238 55.845 -3.53144e-07 
349 1 0.392871 0.0357978 0.25117 55.845 2.46113e-07 
351 1 0.428553 0.0714153 0.251121 55.845 2.24917e-07 
353 1 0.464299 0.107108 0.251171 55.845 5.24824e-07 
354 1 0.428444 4.50646e-05 0.251108 55.845 -3.49345e-07 
356 1 0.464257 0.0356458 0.251189 55.845 -1.71613e-07 
1 1 -1.67493e-05 0.17851 0.4626 55.845 7.50735e-07 
2 1 0.0357389 0.214314 0.462567 55.845 6.42076e-07 
4 1 0.0356957 0.142874 0.462614 55.845 1.66401e-07 
5 1 0.0714148 0.178616 0.462589 55.845 -5.20177e-07 
6 1 0.107165 0.214297 0.462697 55.845 -2.9535e-07 
10 1 0.107142 0.142846 0.46247 55.845 -1.74733e-07 
51 1 -1.0664e-06 0.178586 0.378416 55.845 -4.55351e-07 
52 1 2.64867e-05 0.214328 0.420743 55.845 -5.21372e-07 
53 1 0.0357785 0.21426 0.3784 55.845 -4.71015e-07 
54 1 0.0357502 0.250032 0.420663 55.845 1.98487e-07 
56 1 5.22689e-05 0.142923 0.42079 55.845 3.8833e-07 
57 1 0.0356861 0.142837 0.378412 55.845 6.89038e-08 
58 1 0.0356792 0.178577 0.420791 55.845 5.23714e-07 
59 1 0.0714523 0.178605 0.378408 55.845 -7.26464e-07 
60 1 0.0714649 0.214278 0.420758 55.845 7.8937e-07 
61 1 0.107157 0.2143 0.378383 55.845 -4.23548e-07 
62 1 0.107144 0.249949 0.420854 55.845 1.82204e-07 
68 1 0.071387 0.142903 0.420714 55.845 1.1413e-06 
69 1 0.107126 0.142851 0.378415 55.845 -1.34225e-06 
70 1 0.107117 0.178588 0.420807 55.845 9.22199e-07 
153 1 6.89926e-07 0.178567 0.293607 55.845 2.19989e-07 
154 1 0.000126798 0.214293 0.336162 55.845 -2.78181e-07 
155 1 0.0357379 0.214293 0.293548 55.845 1.58277e-07 
156 1 0.0357098 0.250004 0.335994 55.845 4.13344e-07 
158 1 6.42106e-05 0.142859 0.336108 55.845 -4.58342e-08 
159 1 0.0358185 0.142813 0.293583 55.845 -7.9378e-07 
160 1 0.0357459 0.178527 0.336052 55.845 -3.69983e-08 
161 1 0.071451 0.178568 0.293534 55.845 -4.56813e-07 
162 1 0.0714498 0.214312 0.336154 55.845 3.97291e-07 
163 1 0.107171 0.214248 0.293591 55.845 -4.28975e-07 
164 1 0.107108 0.250051 0.336164 55.845 5.72674e-07 
170 1 0.0714495 0.142849 0.336087 55.845 1.48536e-07 
171 1 0.107155 0.142863 0.293366 55.845 -4.79876e-07 
172 1 0.107119 0.178571 0.336095 55.845 1.07186e-08 
256 1 9.28828e-05 0.214303 0.251153 55.845 8.61899e-07 
258 1 0.0357526 0.250022 0.251265 55.845 4.56732e-07 
260 1 3.3935e-05 0.142852 0.251188 55.845 -9.70823e-08 
262 1 0.0356752 0.178561 0.251339 55.845 8.2659e-07 
264 1 0.0714194 0.214313 0.251306 55.845 1.07623e-06 
266 1 0.10711 0.250015 0.251273 55.845 -1.06482e-07 
272 1 0.0714329 0.142874 0.251148 55.845 6.5301e-07 
274 1 0.107129 0.178608 0.251195 55.845 8.48777e-07 
11 1 0.142907 0.178599 0.462524 55.845 1.77116e-08 
12 1 0.178543 0.214304 0.46265 55.845 8.78526e-07 
17 1 0.178607 0.142839 0.462499 55.845 -8.57873e-07 
18 1 0.21431 0.178682 0.462534 55.845 3.02365e-07 
19 1 0.249944 0.214344 0.462655 55.845 4.71696e-07 
24 1 0.250085 0.142923 0.462645 55.845 -2.74056e-07 
71 1 0.142794 0.178574 0.378372 55.845 -2.45399e-07 
72 1 0.142857 0.214349 0.420816 55.845 8.98018e-07 
73 1 0.17863 0.214331 0.378421 55.845 -3.91973e-07 
82 1 0.142828 0.142866 0.420607 55.845 9.8956e-07 
83 1 0.178577 0.142848 0.378406 55.845 -4.27011e-07 
84 1 0.178553 0.178616 0.420745 55.845 8.52935e-07 
85 1 0.214268 0.178567 0.378517 55.845 -7.18786e-07 
86 1 0.214284 0.214405 0.420852 55.845 -9.61829e-08 
87 1 0.249986 0.214312 0.378491 55.845 -3.45654e-07 
96 1 0.214304 0.14288 0.4209 55.845 6.49189e-07 
97 1 0.249954 0.142822 0.378522 55.845 -7.2436e-07 
98 1 0.250035 0.178669 0.420893 55.845 7.50026e-07 
173 1 0.142859 0.178565 0.293488 55.845 -1.62269e-07 
174 1 0.142896 0.214245 0.336215 55.845 -2.47782e-07 
175 1 0.178504 0.214283 0.293662 55.845 6.27251e-07 
184 1 0.142899 0.142914 0.336077 55.845 4.26615e-07 
185 1 0.178626 0.142877 0.293657 55.845 1.3679e-07 
186 1 0.178612 0.178637 0.336227 55.845 -4.45176e-07 
187 1 0.214256 0.178605 0.293699 55.845 3.76418e-07 
188 1 0.214265 0.214296 0.336133 55.845 -4.9017e-07 
189 1 0.250016 0.214235 0.293514 55.845 1.67342e-07 
198 1 0.21431 0.142847 0.336211 55.845 1.60156e-07 
199 1 0.249993 0.142916 0.293651 55.845 -4.44605e-07 
200 1 0.250007 0.178558 0.336176 55.845 1.77216e-07 
276 1 0.142829 0.214303 0.251193 55.845 4.94327e-07 
286 1 0.142937 0.14282 0.251198 55.845 -2.60568e-07 
288 1 0.178612 0.178569 0.251382 55.845 2.32588e-07 
290 1 0.214223 0.214288 0.251278 55.845 6.96585e-07 
300 1 0.214301 0.142859 0.251334 55.845 6.1179e-08 
302 1 0.24994 0.178536 0.251399 55.845 1.35926e-07 
25 1 0.285764 0.17863 0.462712 55.845 -3.51368e-07 
26 1 0.32147 0.214316 0.462729 55.845 -2.62413e-07 
31 1 0.321486 0.142849 0.4627 55.845 -6.82585e-07 
32 1 0.357203 0.178581 0.462544 55.845 -2.18473e-07 
99 1 0.285718 0.178591 0.378628 55.845 -5.74057e-07 
100 1 0.285733 0.214363 0.42088 55.845 7.72292e-07 
101 1 0.321381 0.214326 0.378517 55.845 -5.92855e-07 
110 1 0.285736 0.142936 0.420782 55.845 6.34244e-07 
111 1 0.321476 0.142853 0.378415 55.845 -7.35727e-07 
112 1 0.321407 0.178603 0.420892 55.845 7.47028e-07 
113 1 0.357106 0.178549 0.378447 55.845 -1.05885e-06 
114 1 0.357137 0.214278 0.4208 55.845 5.20749e-07 
126 1 0.357099 0.142879 0.420914 55.845 1.26214e-06 
201 1 0.285722 0.178577 0.293692 55.845 -2.30928e-09 
202 1 0.28574 0.214287 0.336318 55.845 6.60034e-09 
203 1 0.321442 0.214268 0.293564 55.845 1.75836e-07 
212 1 0.285669 0.142882 0.336131 55.845 4.37734e-07 
213 1 0.321389 0.142864 0.293665 55.845 -2.88624e-07 
214 1 0.321459 0.178608 0.336218 55.845 4.57392e-07 
215 1 0.357159 0.178572 0.29362 55.845 7.82507e-08 
216 1 0.35711 0.214291 0.336039 55.845 3.16272e-07 