ITEM: TIMESTEP
7800
ITEM: NUMBER OF ATOMS
5880
ITEM: BOX BOUNDS pp pp ff
-28.0248 28.0248
-28.0248 28.0248
0 34.092
ITEM: ATOMS id type xs ys zs mass q 
259 1 2.20376e-05 0.107146 0.208195 55.845 3.64556e-07 
267 1 2.54097e-05 0.0356461 0.208101 55.845 2.25904e-07 
269 1 0.0357932 0.0714821 0.208227 55.845 3.57336e-07 
271 1 0.071353 0.107166 0.208331 55.845 3.02619e-07 
279 1 0.0357042 -6.87375e-05 0.208169 55.845 2.35175e-07 
281 1 0.071481 0.0357196 0.208096 55.845 2.71346e-07 
283 1 0.107127 0.0713249 0.208114 55.845 1.05424e-07 
293 1 0.107103 8.68033e-06 0.207997 55.845 4.18726e-07 
361 1 -8.11987e-05 0.10713 0.126349 55.845 -3.38738e-07 
369 1 1.00872e-05 0.0357373 0.126311 55.845 -2.58688e-07 
370 1 1.49671e-06 0.0715345 0.167383 55.845 -2.83996e-07 
371 1 0.0357255 0.0713792 0.126009 55.845 -2.96693e-07 
372 1 0.0356912 0.107266 0.167259 55.845 -1.96546e-07 
373 1 0.071316 0.107111 0.126194 55.845 -2.08028e-07 
380 1 2.13342e-05 -7.99681e-05 0.167318 55.845 -3.061e-07 
381 1 0.0356583 -3.05603e-05 0.126356 55.845 -1.33886e-07 
382 1 0.0356714 0.0357299 0.167488 55.845 -1.93468e-07 
383 1 0.0714369 0.0357378 0.126148 55.845 -2.53236e-07 
384 1 0.0714287 0.0714275 0.167343 55.845 -2.39314e-07 
385 1 0.10711 0.0714024 0.126091 55.845 -2.31162e-07 
386 1 0.107067 0.107064 0.167319 55.845 -2.92374e-07 
394 1 0.0713874 5.77422e-05 0.167341 55.845 -3.62273e-07 
395 1 0.107106 -6.68038e-05 0.126158 55.845 -6.63984e-08 
396 1 0.107076 0.0357042 0.16742 55.845 -3.74231e-07 
463 1 0 0.107143 0.0416667 55.845 6.33084e-07 
471 1 0 0.0357143 0.0416667 55.845 4.82399e-07 
472 1 -5.23614e-05 0.0714639 0.0845008 55.845 1.99061e-07 
473 1 0.0357143 0.0714286 0.0416667 55.845 4.12823e-07 
474 1 0.0356561 0.107107 0.0844721 55.845 9.37796e-08 
475 1 0.0714286 0.107143 0.0416667 55.845 3.02875e-07 
482 1 1.80008e-05 1.27012e-05 0.0844609 55.845 2.03889e-07 
483 1 0.0357143 0 0.0416667 55.845 3.02828e-07 
484 1 0.0356639 0.0356127 0.0844416 55.845 2.57707e-07 
485 1 0.0714286 0.0357143 0.0416667 55.845 3.96186e-07 
486 1 0.0715055 0.0714976 0.0843705 55.845 1.51456e-07 
487 1 0.107143 0.0714286 0.0416667 55.845 2.01021e-07 
488 1 0.107137 0.107174 0.0844279 55.845 1.09826e-07 
496 1 0.0714 3.43806e-05 0.0842574 55.845 8.45075e-08 
497 1 0.107143 0 0.0416667 55.845 4.58099e-07 
498 1 0.107131 0.0357549 0.084443 55.845 1.21535e-07 
567 1 0 0.0714286 0 55.845 -2.9863e-07 
568 1 0.0357143 0.107143 0 55.845 -3.82645e-07 
572 1 0 0 0 55.845 -4.12569e-07 
573 1 0.0357143 0.0357143 0 55.845 -3.398e-07 
574 1 0.0714286 0.0714286 0 55.845 -3.4077e-07 
575 1 0.107143 0.107143 0 55.845 -4.30062e-07 
579 1 0.0714286 0 0 55.845 -2.47787e-07 
580 1 0.107143 0.0357143 0 55.845 -3.12181e-07 
285 1 0.142744 0.107147 0.20806 55.845 2.25985e-07 
295 1 0.142843 0.0357913 0.208185 55.845 3.05125e-07 
297 1 0.178664 0.071366 0.208103 55.845 2.61637e-07 
299 1 0.214231 0.107096 0.207992 55.845 1.32076e-07 
307 1 0.178549 3.56149e-05 0.20824 55.845 3.93432e-07 
309 1 0.214343 0.0358265 0.208234 55.845 2.91183e-07 
311 1 0.25006 0.0713197 0.208145 55.845 2.39072e-07 
387 1 0.142849 0.107207 0.126171 55.845 -8.63641e-08 
397 1 0.142748 0.0357518 0.126163 55.845 -4.52073e-08 
398 1 0.142871 0.0714227 0.167299 55.845 -2.24606e-07 
399 1 0.178556 0.0714144 0.126107 55.845 -1.72541e-07 
400 1 0.178554 0.107135 0.167207 55.845 -2.28137e-07 
401 1 0.214344 0.107129 0.126209 55.845 -7.84002e-08 
408 1 0.142774 6.62459e-05 0.167365 55.845 -3.05296e-07 
409 1 0.178462 1.72328e-05 0.126013 55.845 -2.21051e-07 
410 1 0.178527 0.0356369 0.167384 55.845 -2.17029e-07 
411 1 0.214141 0.0356008 0.126192 55.845 -2.55543e-07 
412 1 0.214383 0.0714461 0.167198 55.845 -2.97602e-07 
413 1 0.249978 0.0713898 0.126187 55.845 -1.44105e-07 
414 1 0.250126 0.107124 0.16729 55.845 -3.03895e-07 
424 1 0.214182 -6.05847e-05 0.167293 55.845 -2.79237e-07 
426 1 0.24998 0.0357064 0.167233 55.845 -3.91909e-07 
489 1 0.142857 0.107143 0.0416667 55.845 2.49037e-07 
499 1 0.142857 0.0357143 0.0416667 55.845 2.78483e-07 
500 1 0.142793 0.0714499 0.0844135 55.845 9.87701e-08 
501 1 0.178571 0.0714286 0.0416667 55.845 2.25495e-07 
502 1 0.178642 0.1072 0.0844225 55.845 1.53532e-07 
503 1 0.214286 0.107143 0.0416667 55.845 3.29332e-07 
510 1 0.14287 -5.74261e-05 0.0843868 55.845 1.03707e-07 
511 1 0.178571 0 0.0416667 55.845 4.22362e-07 
512 1 0.178463 0.0357778 0.0842748 55.845 -1.79842e-08 
513 1 0.214286 0.0357143 0.0416667 55.845 4.64366e-07 
514 1 0.214294 0.071323 0.0844837 55.845 1.3419e-07 
515 1 0.25 0.0714286 0.0416667 55.845 4.07663e-07 
516 1 0.249988 0.107165 0.0845825 55.845 1.55736e-07 
526 1 0.214256 0.000107216 0.0843797 55.845 8.08541e-08 
528 1 0.25 0.0356359 0.0844791 55.845 2.97143e-07 
581 1 0.142857 0.0714286 0 55.845 -1.86869e-07 
582 1 0.178571 0.107143 0 55.845 -2.56666e-07 
586 1 0.142857 0 0 55.845 -3.86635e-07 
587 1 0.178571 0.0357143 0 55.845 -1.59345e-07 
588 1 0.214286 0.0714286 0 55.845 -3.07643e-07 
589 1 0.25 0.107143 0 55.845 -3.72291e-07 
594 1 0.214286 0 0 55.845 -3.37169e-07 
595 1 0.25 0.0357143 0 55.845 -4.05806e-07 
313 1 0.285666 0.107147 0.208089 55.845 2.20032e-07 
323 1 0.249908 -4.98914e-05 0.208196 55.845 4.05478e-07 
325 1 0.28567 0.0357013 0.207851 55.845 2.93854e-07 
327 1 0.321421 0.0714486 0.207975 55.845 2.57025e-07 
329 1 0.357155 0.107213 0.208012 55.845 3.03513e-07 
337 1 0.321376 -4.35474e-05 0.208234 55.845 4.34901e-07 
339 1 0.357191 0.035696 0.208126 55.845 3.25399e-07 
415 1 0.285751 0.107177 0.126095 55.845 -1.34236e-07 
425 1 0.249966 -3.12732e-05 0.126294 55.845 -3.52415e-07 
427 1 0.285679 0.0357247 0.126356 55.845 -3.04124e-07 
428 1 0.285737 0.0714539 0.167287 55.845 -4.32551e-07 
429 1 0.321454 0.0714723 0.126302 55.845 -1.98599e-07 
430 1 0.32152 0.107243 0.167281 55.845 -2.84708e-07 
431 1 0.357214 0.107173 0.126156 55.845 -1.1297e-07 
439 1 0.321383 -8.32363e-06 0.126261 55.845 -3.13492e-07 
440 1 0.321493 0.0357051 0.167227 55.845 -2.63919e-07 
441 1 0.357112 0.0357222 0.126214 55.845 -1.66814e-07 
442 1 0.357109 0.0715012 0.167354 55.845 -3.49098e-07 
517 1 0.285714 0.107143 0.0416667 55.845 3.89891e-07 
527 1 0.25 0 0.0416667 55.845 5.56097e-07 
529 1 0.285714 0.0357143 0.0416667 55.845 4.72946e-07 
530 1 0.28563 0.071432 0.0846589 55.845 1.32182e-07 
531 1 0.321429 0.0714286 0.0416667 55.845 3.90648e-07 
532 1 0.321438 0.107163 0.0843156 55.845 6.31971e-08 
533 1 0.357143 0.107143 0.0416667 55.845 3.72605e-07 
603 1 0.357143 0.0714286 0 55.845 -3.80765e-07 
541 1 0.321429 0 0.0416667 55.845 5.53081e-07 
542 1 0.321417 0.0357055 0.0843672 55.845 1.24186e-07 
543 1 0.357143 0.0357143 0.0416667 55.845 4.09626e-07 
544 1 0.357193 0.0714505 0.0845018 55.845 6.1982e-08 
602 1 0.321429 0.0357143 0 55.845 -3.3908e-07 
596 1 0.285714 0.0714286 0 55.845 -2.81556e-07 
597 1 0.321429 0.107143 0 55.845 -2.02401e-07 
612 1 0.464286 0.0357143 0 55.845 -2.11603e-07 
611 1 0.428571 0 0 55.845 -4.54609e-07 
610 1 0.464286 0.107143 0 55.845 -4.82796e-07 
609 1 0.428571 0.0714286 0 55.845 -3.58145e-07 
608 1 0.392857 0.0357143 0 55.845 -4.18672e-07 
341 1 0.392833 0.0715425 0.208184 55.845 3.02322e-07 
343 1 0.428598 0.107151 0.208391 55.845 3.49512e-07 
348 1 0.392824 -1.10097e-05 0.208231 55.845 2.79713e-07 
350 1 0.428604 0.0357315 0.208155 55.845 3.53992e-07 
352 1 0.464332 0.0714696 0.208382 55.845 3.84924e-07 
355 1 0.464353 1.4254e-05 0.208038 55.845 3.40911e-07 
443 1 0.392915 0.0714722 0.126394 55.845 -2.41437e-07 
444 1 0.392886 0.107215 0.167492 55.845 -5.50033e-07 
445 1 0.428628 0.107164 0.126395 55.845 -1.97054e-07 
604 1 0.392857 0.107143 0 55.845 -3.42872e-07 
450 1 0.392861 1.96543e-06 0.1263 55.845 -1.03268e-07 
451 1 0.392909 0.0356963 0.16752 55.845 -3.22884e-07 
452 1 0.428612 0.0357287 0.126224 55.845 -2.02064e-07 
453 1 0.42866 0.0714239 0.167335 55.845 -3.37596e-07 
454 1 0.464395 0.0714494 0.126312 55.845 -2.7702e-07 
455 1 0.464318 0.107265 0.16752 55.845 -1.77194e-07 
456 1 0.428597 0.000117039 0.16745 55.845 -2.75277e-07 
457 1 0.464263 -7.64503e-05 0.126069 55.845 -1.4126e-07 
458 1 0.464296 0.0357321 0.167387 55.845 -3.00037e-07 
545 1 0.392857 0.0714286 0.0416667 55.845 3.92578e-07 
546 1 0.392931 0.10712 0.0845191 55.845 9.6931e-08 
547 1 0.428571 0.107143 0.0416667 55.845 4.42139e-07 
552 1 0.392857 0 0.0416667 55.845 4.39735e-07 
553 1 0.392989 0.0356577 0.0846151 55.845 8.14526e-08 
554 1 0.428571 0.0357143 0.0416667 55.845 3.94798e-07 
555 1 0.428525 0.0714288 0.0844491 55.845 -9.35922e-09 
556 1 0.464286 0.0714286 0.0416667 55.845 3.67235e-07 
557 1 0.464339 0.107281 0.0845199 55.845 1.65351e-08 
558 1 0.428516 -3.5829e-05 0.0845433 55.845 1.04529e-07 
559 1 0.464286 0 0.0416667 55.845 5.14911e-07 
560 1 0.464248 0.0357604 0.0845521 55.845 3.79851e-08 
255 1 6.63179e-05 0.178674 0.208175 55.845 7.04363e-07 
257 1 0.0357742 0.214371 0.208229 55.845 2.12999e-07 
261 1 0.0357366 0.142926 0.208071 55.845 4.31034e-07 
263 1 0.0714223 0.17869 0.208085 55.845 1.74992e-07 
265 1 0.107066 0.214273 0.20806 55.845 2.34267e-07 
273 1 0.107006 0.14292 0.208038 55.845 1.19709e-07 
357 1 9.11717e-05 0.178582 0.125929 55.845 -5.07916e-07 
358 1 9.25155e-05 0.21434 0.167295 55.845 -2.77882e-07 
359 1 0.035625 0.21439 0.126164 55.845 -2.13013e-07 
360 1 0.0357794 0.250116 0.167468 55.845 -3.54398e-07 
362 1 -1.20573e-05 0.142916 0.167323 55.845 -3.26787e-07 
363 1 0.0355868 0.142993 0.126173 55.845 -4.46726e-07 
364 1 0.0356678 0.178624 0.167253 55.845 -2.14266e-07 
365 1 0.0714797 0.1785 0.126339 55.845 -2.10295e-07 
366 1 0.071342 0.214304 0.167221 55.845 -3.45773e-07 
367 1 0.107154 0.214335 0.126056 55.845 -1.17351e-08 
368 1 0.107043 0.249995 0.167498 55.845 -2.67426e-07 
374 1 0.0714293 0.142828 0.167439 55.845 -3.19375e-07 
375 1 0.107158 0.142896 0.1263 55.845 -1.52981e-07 
376 1 0.107248 0.178673 0.167311 55.845 -4.41273e-07 
459 1 0 0.178571 0.0416667 55.845 4.8075e-07 
460 1 1.21944e-05 0.214334 0.084393 55.845 1.92742e-07 
461 1 0.0357143 0.214286 0.0416667 55.845 4.91579e-07 
462 1 0.0357045 0.250005 0.0843634 55.845 2.65064e-07 
464 1 -4.90246e-05 0.142775 0.0843333 55.845 -1.35439e-08 
465 1 0.0357143 0.142857 0.0416667 55.845 5.01119e-07 
466 1 0.0357257 0.178654 0.084446 55.845 -1.67821e-08 
467 1 0.0714286 0.178571 0.0416667 55.845 4.27009e-07 
468 1 0.0714294 0.214231 0.0844679 55.845 1.37775e-07 
469 1 0.107143 0.214286 0.0416667 55.845 4.27671e-07 
470 1 0.107244 0.249988 0.0843803 55.845 -7.13024e-09 
476 1 0.0713666 0.142867 0.0844614 55.845 2.03761e-07 
477 1 0.107143 0.142857 0.0416667 55.845 3.75963e-07 
478 1 0.107175 0.178492 0.0844215 55.845 1.47449e-07 
561 1 0 0.214286 0 55.845 -4.16337e-07 
562 1 0.0357143 0.25 0 55.845 -2.63697e-07 
563 1 0 0.142857 0 55.845 -4.39653e-07 
564 1 0.0357143 0.178571 0 55.845 -4.38114e-07 
565 1 0.0714286 0.214286 0 55.845 -4.10133e-07 
566 1 0.107143 0.25 0 55.845 -3.59769e-07 
569 1 0.0714286 0.142857 0 55.845 -3.57515e-07 
570 1 0.107143 0.178571 0 55.845 -3.64756e-07 
275 1 0.142856 0.178556 0.208293 55.845 3.03313e-08 
277 1 0.178608 0.214245 0.208329 55.845 2.61211e-07 
287 1 0.178656 0.142916 0.208074 55.845 1.03649e-07 
289 1 0.214313 0.17864 0.208249 55.845 2.57333e-07 
291 1 0.249953 0.214365 0.208101 55.845 2.41571e-07 
301 1 0.25008 0.142912 0.208102 55.845 3.24524e-07 
377 1 0.142921 0.178697 0.126336 55.845 -7.71973e-08 
378 1 0.142837 0.214258 0.167424 55.845 -2.04253e-07 
379 1 0.178562 0.214158 0.126159 55.845 -3.09457e-07 
388 1 0.142878 0.142881 0.167516 55.845 -3.87831e-07 
389 1 0.178652 0.142861 0.12625 55.845 -1.32218e-07 
390 1 0.178601 0.178615 0.167326 55.845 -2.11501e-07 
391 1 0.214284 0.178574 0.126174 55.845 -2.72671e-07 
392 1 0.214332 0.214259 0.167343 55.845 -2.54362e-07 
393 1 0.250104 0.214376 0.126284 55.845 -2.30973e-07 
402 1 0.214446 0.142834 0.167402 55.845 -3.28124e-07 
403 1 0.250087 0.142865 0.12616 55.845 -2.11907e-07 
404 1 0.249978 0.178626 0.167364 55.845 -3.87949e-07 
479 1 0.142857 0.178571 0.0416667 55.845 5.51403e-07 
480 1 0.14286 0.214267 0.08449 55.845 5.09273e-08 
481 1 0.178571 0.214286 0.0416667 55.845 3.10216e-07 
490 1 0.14291 0.142889 0.0845092 55.845 1.93981e-07 
491 1 0.178571 0.142857 0.0416667 55.845 5.03504e-07 
492 1 0.178501 0.178552 0.0844746 55.845 1.48414e-07 
493 1 0.214286 0.178571 0.0416667 55.845 4.7392e-07 
494 1 0.21431 0.214307 0.0846318 55.845 1.08917e-07 
495 1 0.25 0.214286 0.0416667 55.845 6.17626e-07 
504 1 0.214242 0.142882 0.0844041 55.845 1.94202e-07 
505 1 0.25 0.142857 0.0416667 55.845 4.05028e-07 
506 1 0.250051 0.178656 0.0845021 55.845 3.54166e-08 
571 1 0.142857 0.214286 0 55.845 -2.89737e-07 
576 1 0.142857 0.142857 0 55.845 -3.61377e-07 
577 1 0.178571 0.178571 0 55.845 -4.7113e-07 
578 1 0.214286 0.214286 0 55.845 -5.71137e-07 
583 1 0.214286 0.142857 0 55.845 -4.07299e-07 
584 1 0.25 0.178571 0 55.845 -4.57302e-07 
303 1 0.285768 0.178571 0.20798 55.845 3.77282e-07 
305 1 0.321489 0.214298 0.208178 55.845 2.86458e-07 
315 1 0.32139 0.142906 0.208252 55.845 4.02119e-07 
317 1 0.357032 0.178648 0.208169 55.845 2.61515e-07 
405 1 0.285734 0.178581 0.126203 55.845 -2.74309e-07 
406 1 0.285762 0.214379 0.167288 55.845 -4.21254e-07 
407 1 0.321434 0.214337 0.126172 55.845 -2.15279e-07 
416 1 0.28575 0.142874 0.167199 55.845 -2.71029e-07 
417 1 0.321539 0.142824 0.126182 55.845 -6.77778e-08 
418 1 0.321505 0.178672 0.167365 55.845 -2.50198e-07 
419 1 0.35713 0.17866 0.126229 55.845 -6.92669e-08 
420 1 0.357186 0.214333 0.167377 55.845 -4.0384e-07 
432 1 0.357076 0.142933 0.167486 55.845 -4.61059e-07 
507 1 0.285714 0.178571 0.0416667 55.845 3.77748e-07 
508 1 0.28566 0.214344 0.084479 55.845 2.1584e-07 
509 1 0.321429 0.214286 0.0416667 55.845 4.83922e-07 
518 1 0.285738 0.142938 0.084346 55.845 -1.66111e-07 
519 1 0.321429 0.142857 0.0416667 55.845 2.97835e-07 
520 1 0.321494 0.17865 0.0845011 55.845 -3.09242e-08 
521 1 0.357143 0.178571 0.0416667 55.845 4.60584e-07 
522 1 0.357115 0.214306 0.084523 55.845 -1.72276e-08 
534 1 0.357237 0.142907 0.0846363 55.845 1.07736e-07 
585 1 0.285714 0.214286 0 55.845 -4.4418e-07 
590 1 0.285714 0.142857 0 55.845 -3.57208e-07 
591 1 0.321429 0.178571 0 55.845 -3.02619e-07 
592 1 0.357143 0.214286 0 55.845 -3.52353e-07 
598 1 0.357143 0.142857 0 55.845 -2.85378e-07 
319 1 0.392813 0.214423 0.208224 55.845 5.09388e-07 
321 1 0.42852 0.249953 0.208177 55.845 5.05846e-07 
331 1 0.392804 0.142857 0.208191 55.845 2.38878e-07 
333 1 0.428625 0.178545 0.208303 55.845 6.26957e-07 
335 1 0.464226 0.214258 0.20821 55.845 5.92454e-07 
345 1 0.4644 0.142943 0.208209 55.845 4.94005e-07 
606 1 0.464286 0.178571 0 55.845 -2.4784e-07 
421 1 0.39285 0.214258 0.126294 55.845 -2.43485e-07 
422 1 0.392806 0.250048 0.167302 55.845 -5.66465e-07 
423 1 0.428469 0.250119 0.12636 55.845 -9.32695e-08 
433 1 0.392884 0.142865 0.126314 55.845 -1.52515e-07 
434 1 0.392945 0.178545 0.167494 55.845 -4.8665e-07 
435 1 0.428594 0.178588 0.126227 55.845 -2.85872e-07 
436 1 0.428588 0.214359 0.167383 55.845 -3.18227e-07 
437 1 0.464229 0.214276 0.126328 55.845 -2.86455e-07 
605 1 0.428571 0.142857 0 55.845 -3.31538e-07 
446 1 0.428599 0.142949 0.167546 55.845 -3.51473e-07 
447 1 0.464275 0.142929 0.126143 55.845 -3.46627e-07 
448 1 0.464276 0.178497 0.167383 55.845 -3.84509e-07 
523 1 0.392857 0.214286 0.0416667 55.845 4.65733e-07 
524 1 0.392887 0.249932 0.0843689 55.845 -1.33074e-07 
525 1 0.428571 0.25 0.0416667 55.845 5.52538e-07 
535 1 0.392857 0.142857 0.0416667 55.845 6.02095e-07 
536 1 0.392863 0.178627 0.0845461 55.845 1.70489e-07 
537 1 0.428571 0.178571 0.0416667 55.845 5.95202e-07 
538 1 0.428592 0.214372 0.0843884 55.845 1.48705e-07 
539 1 0.464286 0.214286 0.0416667 55.845 5.30988e-07 
548 1 0.428508 0.142875 0.0845664 55.845 5.32075e-08 
549 1 0.464286 0.142857 0.0416667 55.845 4.58467e-07 
550 1 0.464187 0.178634 0.0845652 55.845 -2.07469e-07 
593 1 0.392857 0.25 0 55.845 -4.1127e-07 
599 1 0.392857 0.178571 0 55.845 -4.28392e-07 
600 1 0.428571 0.214286 0 55.845 -3.2632e-07 
3 1 9.49058e-06 0.107163 0.457492 55.845 -1.95613e-07 
7 1 1.74853e-05 0.0357479 0.457458 55.845 8.39005e-08 
8 1 0.0356678 0.0714586 0.45745 55.845 9.50073e-08 
9 1 0.0714105 0.107232 0.457352 55.845 -1.4872e-07 
13 1 0.0357852 3.63823e-05 0.457363 55.845 5.18548e-08 
14 1 0.0714889 0.0357394 0.457571 55.845 -1.69704e-07 
15 1 0.107202 0.0713789 0.457351 55.845 -1.24148e-07 
20 1 0.107051 7.53023e-05 0.457292 55.845 1.4782e-07 
55 1 5.44818e-05 0.107237 0.374286 55.845 4.03656e-07 
63 1 8.64942e-05 0.0358291 0.374047 55.845 8.91059e-08 
64 1 -2.11085e-05 0.0714069 0.415748 55.845 -6.3994e-07 
65 1 0.0357498 0.071463 0.374245 55.845 2.34511e-07 
66 1 0.0356833 0.107201 0.415756 55.845 -7.05993e-07 
67 1 0.0714778 0.107215 0.374293 55.845 3.03893e-07 
74 1 2.10974e-05 9.37602e-05 0.415624 55.845 -7.12942e-07 
75 1 0.035808 9.15222e-05 0.374118 55.845 2.54688e-07 
76 1 0.0358065 0.0357812 0.415908 55.845 -6.33814e-07 
77 1 0.0713743 0.035683 0.374021 55.845 2.09372e-07 
78 1 0.0715006 0.0714767 0.415739 55.845 -5.30173e-07 
79 1 0.107131 0.071469 0.374005 55.845 3.42075e-07 
80 1 0.107257 0.10712 0.415957 55.845 -5.70611e-07 
88 1 0.071453 -3.32589e-05 0.415671 55.845 -5.34316e-07 
89 1 0.107215 6.58983e-05 0.373995 55.845 1.90135e-07 
90 1 0.107215 0.0357413 0.415652 55.845 -7.52407e-07 
157 1 -3.22863e-05 0.107195 0.291412 55.845 -2.28691e-07 
165 1 0.000134063 0.0357521 0.291304 55.845 8.53315e-08 
166 1 -8.43402e-05 0.0715321 0.332852 55.845 3.36711e-07 
167 1 0.0356181 0.0713183 0.291414 55.845 -7.50674e-08 
168 1 0.035715 0.107128 0.332813 55.845 2.66037e-07 
169 1 0.0714391 0.107213 0.291311 55.845 4.75407e-08 
176 1 0.000169619 2.35677e-05 0.332719 55.845 4.86504e-07 
177 1 0.0357841 2.4196e-05 0.291341 55.845 6.52308e-08 
178 1 0.0357256 0.0357871 0.332856 55.845 3.52298e-07 
179 1 0.0714233 0.0356432 0.29145 55.845 1.43196e-07 
180 1 0.0713863 0.0714516 0.332821 55.845 3.92003e-07 
181 1 0.107094 0.0713764 0.291276 55.845 2.44344e-07 
182 1 0.107124 0.107174 0.332667 55.845 2.77178e-07 
190 1 0.0715224 -0.000114074 0.332772 55.845 3.51962e-07 
191 1 0.10712 -1.57155e-05 0.291308 55.845 1.09884e-07 
192 1 0.107081 0.035715 0.332834 55.845 3.93577e-07 
268 1 2.81327e-05 0.0714177 0.2497 55.845 3.48751e-08 
270 1 0.0355984 0.107171 0.249736 55.845 -6.0479e-08 
278 1 8.64506e-05 -5.85317e-05 0.249659 55.845 -8.38646e-08 
280 1 0.0357633 0.0356407 0.249658 55.845 3.44165e-08 
282 1 0.0713646 0.0714122 0.249937 55.845 1.58131e-08 
284 1 0.107201 0.10719 0.24957 55.845 1.94174e-07 
292 1 0.0714026 5.3796e-05 0.249737 55.845 6.31721e-09 
294 1 0.107148 0.0357285 0.249682 55.845 -6.39631e-08 
16 1 0.142908 0.107122 0.457271 55.845 1.56459e-07 
21 1 0.142833 0.0357587 0.457457 55.845 -5.73608e-08 
22 1 0.178553 0.0713208 0.457509 55.845 -9.75236e-08 
23 1 0.21429 0.107197 0.457346 55.845 6.59733e-08 
27 1 0.178511 1.84766e-06 0.457419 55.845 1.83127e-08 
28 1 0.214165 0.0358018 0.457416 55.845 -1.21898e-07 
29 1 0.24992 0.0714985 0.457377 55.845 -7.46168e-08 
81 1 0.142864 0.107222 0.373946 55.845 9.0462e-08 
91 1 0.142955 0.0356559 0.373901 55.845 2.05351e-07 
92 1 0.142883 0.0712853 0.415678 55.845 -5.3061e-07 
93 1 0.178542 0.0714254 0.374055 55.845 1.69047e-07 
94 1 0.178564 0.107098 0.415692 55.845 -5.04938e-07 
95 1 0.214255 0.107202 0.374014 55.845 1.63806e-07 
102 1 0.14283 -6.6298e-05 0.41578 55.845 -6.64641e-07 
103 1 0.178541 -1.78517e-05 0.374066 55.845 3.20348e-07 
104 1 0.178554 0.0356508 0.41582 55.845 -6.71914e-07 
105 1 0.214221 0.0356788 0.373978 55.845 2.88993e-07 
106 1 0.214261 0.0714337 0.415586 55.845 -6.42353e-07 
107 1 0.250015 0.0713471 0.374049 55.845 1.00363e-07 
108 1 0.250046 0.107205 0.415868 55.845 -7.26792e-07 
118 1 0.214191 0.000122356 0.415677 55.845 -6.09759e-07 
120 1 0.249893 0.0358437 0.415678 55.845 -5.73533e-07 
183 1 0.142895 0.107246 0.291315 55.845 1.65142e-07 
193 1 0.14283 0.0358833 0.291302 55.845 1.77749e-07 
194 1 0.142781 0.0714601 0.332762 55.845 3.6938e-07 
195 1 0.178584 0.0714626 0.291401 55.845 1.64507e-07 
196 1 0.178551 0.107149 0.332758 55.845 3.00929e-07 
197 1 0.21424 0.107129 0.29124 55.845 1.36411e-08 
204 1 0.142826 -2.39785e-06 0.332559 55.845 3.36656e-07 
205 1 0.178544 -4.58323e-06 0.2912 55.845 1.56057e-10 
206 1 0.178513 0.035621 0.332563 55.845 4.74718e-07 
207 1 0.214291 0.0357352 0.291196 55.845 1.33058e-07 
208 1 0.214325 0.0714372 0.332768 55.845 2.32778e-07 
209 1 0.250059 0.0713909 0.291251 55.845 2.38741e-07 
210 1 0.249999 0.107106 0.332711 55.845 3.36238e-07 
220 1 0.214248 9.60544e-05 0.332792 55.845 3.96945e-07 
222 1 0.250021 0.0357847 0.332667 55.845 1.98339e-07 
296 1 0.142839 0.0716587 0.249642 55.845 9.20581e-09 
298 1 0.178513 0.107176 0.249572 55.845 -8.75907e-08 
306 1 0.14274 8.69918e-07 0.249631 55.845 -3.16227e-08 
308 1 0.178504 0.0357641 0.249668 55.845 1.48617e-09 
310 1 0.214317 0.0714274 0.249791 55.845 -6.42839e-08 
312 1 0.25001 0.107097 0.249618 55.845 -1.01432e-07 
322 1 0.214187 6.06525e-05 0.249771 55.845 -1.42127e-08 
324 1 0.250076 0.0356205 0.249487 55.845 -3.64441e-08 
30 1 0.28575 0.107079 0.457405 55.845 -1.26769e-07 
35 1 0.249978 9.49939e-05 0.457322 55.845 6.63428e-08 
36 1 0.285691 0.0357101 0.457307 55.845 5.51121e-08 
37 1 0.321414 0.0715266 0.457447 55.845 -9.57148e-08 
38 1 0.357162 0.107117 0.45755 55.845 -6.78155e-09 
42 1 0.321405 -9.5939e-05 0.457576 55.845 -1.4638e-07 
43 1 0.357142 0.0357517 0.457374 55.845 -1.36723e-07 
109 1 0.285649 0.107095 0.374057 55.845 3.11884e-07 
119 1 0.250009 9.8051e-06 0.37407 55.845 3.32224e-07 
121 1 0.285698 0.0356624 0.374299 55.845 1.50722e-07 
122 1 0.285707 0.0714366 0.415787 55.845 -6.66653e-07 
123 1 0.321362 0.0714537 0.374196 55.845 2.50077e-07 
124 1 0.321483 0.107218 0.415764 55.845 -5.57941e-07 
125 1 0.357122 0.107188 0.374078 55.845 1.03437e-07 
133 1 0.321442 -5.44068e-05 0.374205 55.845 4.09966e-07 
134 1 0.321417 0.0356914 0.415818 55.845 -5.52276e-07 
135 1 0.357183 0.0357147 0.374317 55.845 2.91813e-07 
136 1 0.357208 0.0714683 0.415646 55.845 -5.37682e-07 
211 1 0.285749 0.107083 0.291253 55.845 1.95622e-07 
221 1 0.25006 -5.59852e-05 0.291321 55.845 -1.37314e-08 
223 1 0.285719 0.0356852 0.291354 55.845 7.11117e-08 
224 1 0.285707 0.0714334 0.332777 55.845 1.93226e-07 
225 1 0.321518 0.071417 0.291454 55.845 1.18785e-07 
226 1 0.321387 0.107242 0.332927 55.845 2.0661e-07 
227 1 0.357036 0.107165 0.291275 55.845 3.05839e-07 
235 1 0.321482 5.89985e-05 0.291461 55.845 -1.57197e-08 
236 1 0.321419 0.0355931 0.332984 55.845 2.48376e-07 
237 1 0.357099 0.0356303 0.291313 55.845 1.63273e-07 
238 1 0.357119 0.0715344 0.332753 55.845 1.31433e-07 
326 1 0.285801 0.0713589 0.249601 55.845 -1.28765e-07 
328 1 0.32141 0.107134 0.249591 55.845 -3.4736e-07 
338 1 0.321455 0.0357126 0.249637 55.845 -1.39779e-08 
340 1 0.357012 0.0713852 0.249735 55.845 -9.59278e-08 
44 1 0.392862 0.0715177 0.45738 55.845 -8.65385e-08 
45 1 0.428543 0.107163 0.45732 55.845 7.88784e-08 
47 1 0.392927 -6.24993e-05 0.457449 55.845 -2.05477e-08 
48 1 0.428637 0.0358041 0.457244 55.845 -1.14495e-07 
49 1 0.464337 0.0715773 0.457477 55.845 -8.75456e-08 
50 1 0.464301 -1.76643e-05 0.457386 55.845 -5.42469e-08 
137 1 0.392894 0.0715312 0.373907 55.845 2.58234e-07 
138 1 0.392962 0.107116 0.415603 55.845 -7.38907e-07 
139 1 0.428568 0.10722 0.373986 55.845 3.04112e-07 
144 1 0.392842 4.20526e-05 0.37428 55.845 1.38029e-07 
145 1 0.392865 0.0358126 0.415796 55.845 -5.37107e-07 
146 1 0.428535 0.0357071 0.374157 55.845 2.71549e-07 
147 1 0.428604 0.0714868 0.415743 55.845 -6.16016e-07 
148 1 0.464321 0.0713871 0.374142 55.845 3.83798e-07 
149 1 0.464247 0.107177 0.415602 55.845 -8.15999e-07 
150 1 0.428539 -6.57891e-05 0.415753 55.845 -6.71172e-07 
151 1 0.464262 7.14855e-05 0.374206 55.845 2.48282e-07 
152 1 0.464246 0.0357472 0.41584 55.845 -7.02801e-07 
239 1 0.392837 0.0714738 0.291213 55.845 2.52396e-07 
240 1 0.392855 0.107248 0.33271 55.845 1.69785e-07 
241 1 0.428588 0.107134 0.291282 55.845 1.22878e-07 
246 1 0.392813 6.62981e-05 0.291359 55.845 1.45442e-07 
247 1 0.392796 0.0357915 0.332584 55.845 2.87614e-07 
248 1 0.428644 0.0356616 0.291478 55.845 2.13415e-07 
249 1 0.428599 0.0714248 0.332612 55.845 3.25136e-07 
250 1 0.464424 0.0714376 0.291401 55.845 7.09048e-08 
251 1 0.464281 0.107154 0.332895 55.845 2.37057e-07 
252 1 0.428559 -1.07973e-05 0.332844 55.845 3.07622e-07 
253 1 0.464309 -2.2479e-05 0.291414 55.845 7.43852e-08 
254 1 0.464316 0.0357026 0.33267 55.845 2.54238e-07 
342 1 0.392752 0.107177 0.249843 55.845 -3.211e-08 
349 1 0.392881 0.0357961 0.249567 55.845 -1.73731e-07 
351 1 0.428659 0.0714131 0.249681 55.845 -1.45008e-07 
353 1 0.464393 0.107246 0.249945 55.845 -3.70887e-07 
354 1 0.428658 -2.16394e-05 0.249598 55.845 -1.82665e-07 
356 1 0.464275 0.0357689 0.249711 55.845 -3.15577e-07 
1 1 6.94386e-05 0.17865 0.457461 55.845 -1.11963e-07 
2 1 0.0357214 0.214202 0.457301 55.845 -1.4444e-07 
4 1 0.0359042 0.142846 0.457665 55.845 -1.72671e-07 
5 1 0.0714447 0.178594 0.45752 55.845 8.58228e-08 
6 1 0.107157 0.214421 0.457454 55.845 1.66562e-07 
10 1 0.107212 0.142801 0.457467 55.845 6.18111e-08 
51 1 -3.80549e-05 0.17855 0.374175 55.845 5.46032e-07 
52 1 -5.92197e-05 0.214269 0.415762 55.845 -7.67612e-07 
53 1 0.0357367 0.214269 0.37412 55.845 2.39934e-07 
54 1 0.0356469 0.250022 0.415603 55.845 -7.12621e-07 
56 1 -6.20287e-05 0.142965 0.415946 55.845 -7.69441e-07 
57 1 0.0356889 0.142796 0.374181 55.845 4.9443e-07 
58 1 0.0357513 0.178583 0.41588 55.845 -7.13251e-07 
59 1 0.071387 0.17854 0.374104 55.845 3.47476e-07 
60 1 0.0715373 0.214301 0.415676 55.845 -7.95233e-07 
61 1 0.107073 0.214178 0.374136 55.845 1.47169e-07 
62 1 0.107108 0.249992 0.415812 55.845 -6.34211e-07 
68 1 0.0713842 0.142866 0.415716 55.845 -6.86347e-07 
69 1 0.107202 0.14281 0.374069 55.845 7.52398e-08 
70 1 0.107202 0.17848 0.415683 55.845 -6.66641e-07 
153 1 2.94075e-05 0.178637 0.29134 55.845 -2.59274e-07 
154 1 -8.63221e-06 0.214201 0.332979 55.845 4.30507e-07 
155 1 0.0356746 0.214318 0.29142 55.845 -3.2966e-07 
156 1 0.0357996 0.25008 0.332792 55.845 4.81417e-07 
158 1 3.12061e-05 0.142883 0.332817 55.845 5.07174e-07 
159 1 0.035777 0.142851 0.291201 55.845 -2.06163e-07 
160 1 0.0356714 0.17854 0.332903 55.845 4.4762e-07 
161 1 0.071444 0.178608 0.291299 55.845 -1.20958e-07 
162 1 0.0714588 0.21424 0.332866 55.845 3.9508e-07 
163 1 0.107065 0.214314 0.291345 55.845 -1.88333e-07 
164 1 0.107185 0.249977 0.332803 55.845 4.3872e-07 
170 1 0.0713797 0.142889 0.332715 55.845 3.63798e-07 
171 1 0.107153 0.142865 0.291341 55.845 1.1168e-07 
172 1 0.107113 0.178622 0.332744 55.845 3.33746e-07 
256 1 3.97204e-05 0.214477 0.249679 55.845 1.41462e-07 
258 1 0.0357001 0.250074 0.249778 55.845 2.44574e-07 
260 1 0.000105747 0.142989 0.249756 55.845 1.47728e-07 
262 1 0.035671 0.178618 0.249592 55.845 1.02192e-07 
264 1 0.0714095 0.214383 0.249805 55.845 1.67583e-07 
266 1 0.107194 0.250088 0.249615 55.845 1.57988e-07 
272 1 0.0714928 0.142795 0.249871 55.845 1.12564e-07 
274 1 0.107012 0.178558 0.249702 55.845 7.78323e-08 
11 1 0.142914 0.178567 0.457409 55.845 8.1703e-08 
12 1 0.178572 0.214264 0.457506 55.845 -1.15893e-08 
17 1 0.178633 0.142982 0.457459 55.845 -9.62631e-08 
18 1 0.21442 0.178496 0.457346 55.845 -7.35718e-08 
19 1 0.250102 0.214296 0.45737 55.845 6.00394e-08 
24 1 0.250042 0.142833 0.457589 55.845 -7.31702e-08 
71 1 0.142828 0.178533 0.374091 55.845 2.37299e-07 
72 1 0.1429 0.214246 0.41575 55.845 -5.852e-07 
73 1 0.178597 0.214325 0.374227 55.845 3.57568e-07 
82 1 0.143006 0.142895 0.415709 55.845 -6.56842e-07 
83 1 0.178559 0.142881 0.373798 55.845 1.98386e-07 
84 1 0.178661 0.178578 0.415811 55.845 -6.94154e-07 
85 1 0.21435 0.178588 0.374139 55.845 1.652e-07 
86 1 0.214319 0.214254 0.415879 55.845 -6.52863e-07 
87 1 0.250035 0.214347 0.374197 55.845 1.42762e-07 
96 1 0.214221 0.142794 0.415783 55.845 -6.46191e-07 
97 1 0.249992 0.142842 0.374165 55.845 2.49631e-07 
98 1 0.250001 0.17855 0.415848 55.845 -7.48818e-07 
173 1 0.142734 0.178619 0.291376 55.845 -2.04402e-07 
174 1 0.142756 0.214296 0.332621 55.845 4.73448e-07 
175 1 0.178637 0.214337 0.291441 55.845 -3.29203e-07 
184 1 0.14285 0.142869 0.332754 55.845 2.21128e-07 
185 1 0.178652 0.142974 0.291168 55.845 -3.52471e-08 
186 1 0.178481 0.178604 0.332804 55.845 6.78586e-07 
187 1 0.214293 0.178665 0.291442 55.845 -1.19133e-07 
188 1 0.214271 0.214303 0.332793 55.845 4.14766e-07 
189 1 0.249974 0.21429 0.291274 55.845 -2.19822e-07 
198 1 0.214412 0.142961 0.332701 55.845 5.45225e-07 
199 1 0.250066 0.14294 0.291232 55.845 9.4676e-08 
200 1 0.250089 0.17865 0.332828 55.845 4.41963e-07 
276 1 0.142828 0.214292 0.24979 55.845 7.12856e-08 
286 1 0.142857 0.142811 0.2497 55.845 7.88468e-08 
288 1 0.178619 0.178529 0.249596 55.845 1.37168e-07 
290 1 0.214356 0.21431 0.249805 55.845 6.05162e-08 
300 1 0.214362 0.142743 0.24978 55.845 -1.96272e-08 
302 1 0.250087 0.178615 0.249682 55.845 -4.81626e-09 
25 1 0.28579 0.17847 0.457596 55.845 -7.17483e-08 
26 1 0.321342 0.214323 0.457707 55.845 -9.99124e-08 
31 1 0.321379 0.142872 0.45734 55.845 -3.90756e-08 
32 1 0.357163 0.178602 0.45744 55.845 -2.83247e-08 
99 1 0.285723 0.178648 0.374141 55.845 2.00174e-07 
100 1 0.2858 0.214226 0.415883 55.845 -5.61639e-07 
101 1 0.321451 0.214332 0.374105 55.845 2.6121e-07 
110 1 0.285645 0.142935 0.415841 55.845 -6.78045e-07 
111 1 0.321376 0.14297 0.374183 55.845 2.87736e-07 
112 1 0.321416 0.178587 0.415902 55.845 -6.65796e-07 
113 1 0.357143 0.178636 0.373822 55.845 2.55515e-07 
114 1 0.357118 0.21427 0.415844 55.845 -6.54626e-07 
126 1 0.357147 0.142921 0.415614 55.845 -7.1345e-07 
201 1 0.28572 0.178539 0.291364 55.845 8.28328e-08 
202 1 0.285718 0.214322 0.332727 55.845 4.1744e-07 
203 1 0.321323 0.21433 0.291267 55.845 5.97631e-08 
212 1 0.285667 0.142815 0.332907 55.845 3.42055e-07 
213 1 0.321377 0.142789 0.291525 55.845 8.52263e-08 
214 1 0.321363 0.178668 0.332777 55.845 2.18072e-07 
215 1 0.357052 0.178597 0.291392 55.845 1.80729e-07 
216 1 0.357055 0.214319 0.332797 55.845 1.5659e-07 