ITEM: TIMESTEP
4800
ITEM: NUMBER OF ATOMS
5880
ITEM: BOX BOUNDS pp pp ff
-28.0023 28.0023
-28.0023 28.0023
0 34.092
ITEM: ATOMS id type xs ys zs mass q 
259 1 -3.66534e-05 0.107095 0.208042 55.845 -4.79626e-07 
267 1 -8.4379e-05 0.0356581 0.208117 55.845 -7.9235e-07 
269 1 0.0356997 0.0714214 0.207991 55.845 -6.9667e-07 
271 1 0.0713996 0.107125 0.208153 55.845 -5.6632e-07 
279 1 0.0356681 4.15906e-05 0.208079 55.845 -6.25405e-07 
281 1 0.0713582 0.0357471 0.20817 55.845 -6.83926e-07 
283 1 0.107132 0.0714185 0.207952 55.845 -6.83862e-07 
293 1 0.107111 2.12051e-06 0.208101 55.845 -6.08212e-07 
361 1 -1.61831e-05 0.107116 0.123458 55.845 1.12195e-07 
369 1 -1.07074e-05 0.0357325 0.123662 55.845 -2.05927e-08 
370 1 -6.0993e-05 0.0713755 0.165736 55.845 6.555e-09 
371 1 0.0356382 0.0714432 0.123487 55.845 5.23222e-08 
372 1 0.035655 0.107113 0.165758 55.845 -1.67206e-07 
373 1 0.0713608 0.107098 0.123579 55.845 1.67365e-07 
380 1 2.65866e-05 3.43627e-05 0.165831 55.845 7.00451e-08 
381 1 0.0357272 3.98511e-05 0.123597 55.845 2.16841e-07 
382 1 0.0356354 0.035675 0.165783 55.845 3.4628e-08 
383 1 0.071366 0.0357344 0.123528 55.845 2.6849e-07 
384 1 0.0713342 0.0714033 0.165799 55.845 -5.2334e-08 
385 1 0.107125 0.0714348 0.123572 55.845 1.12975e-07 
386 1 0.107072 0.107151 0.165788 55.845 3.94309e-08 
394 1 0.0714249 -1.93576e-05 0.165721 55.845 -1.39091e-07 
395 1 0.107148 -2.11529e-05 0.123579 55.845 3.15874e-07 
396 1 0.1071 0.035724 0.165849 55.845 -1.77662e-08 
463 1 0 0.107143 0.0416667 55.845 -3.60692e-07 
471 1 0 0.0357143 0.0416667 55.845 -4.45537e-07 
472 1 -3.70416e-05 0.071488 0.0826206 55.845 1.43772e-07 
473 1 0.0357143 0.0714286 0.0416667 55.845 -4.52748e-07 
474 1 0.0356899 0.107145 0.0828239 55.845 7.9919e-08 
475 1 0.0714286 0.107143 0.0416667 55.845 -3.43101e-07 
482 1 3.26359e-05 2.83829e-06 0.0827651 55.845 2.78178e-07 
483 1 0.0357143 0 0.0416667 55.845 -2.80086e-07 
484 1 0.0357348 0.0357191 0.0826285 55.845 2.39987e-07 
485 1 0.0714286 0.0357143 0.0416667 55.845 -3.40246e-07 
486 1 0.0714256 0.0713988 0.0826949 55.845 1.10219e-07 
487 1 0.107143 0.0714286 0.0416667 55.845 -3.46261e-07 
488 1 0.107129 0.107096 0.0828367 55.845 2.28472e-07 
496 1 0.0713856 8.64154e-05 0.0828378 55.845 9.98841e-08 
497 1 0.107143 0 0.0416667 55.845 -3.10747e-07 
498 1 0.107165 0.0357039 0.0828071 55.845 2.6316e-07 
567 1 0 0.0714286 0 55.845 2.14338e-07 
568 1 0.0357143 0.107143 0 55.845 1.81893e-07 
572 1 0 0 0 55.845 2.35687e-07 
573 1 0.0357143 0.0357143 0 55.845 2.83694e-07 
574 1 0.0714286 0.0714286 0 55.845 2.15008e-07 
575 1 0.107143 0.107143 0 55.845 2.16806e-07 
579 1 0.0714286 0 0 55.845 2.98018e-07 
580 1 0.107143 0.0357143 0 55.845 2.76399e-07 
285 1 0.142846 0.10715 0.208017 55.845 -6.13892e-07 
295 1 0.142769 0.0356979 0.208108 55.845 -8.26768e-07 
297 1 0.178525 0.0713878 0.208002 55.845 -7.86733e-07 
299 1 0.214302 0.107193 0.208143 55.845 -6.65965e-07 
307 1 0.178555 -4.886e-05 0.208189 55.845 -7.25033e-07 
309 1 0.214211 0.0358012 0.208049 55.845 -6.31434e-07 
311 1 0.250031 0.0713394 0.208061 55.845 -6.40022e-07 
387 1 0.142887 0.107192 0.123602 55.845 9.97426e-09 
397 1 0.14281 0.035634 0.123714 55.845 6.54766e-08 
398 1 0.142875 0.0714365 0.165779 55.845 1.82592e-07 
399 1 0.178489 0.0713741 0.123615 55.845 9.98022e-09 
400 1 0.178612 0.107134 0.165783 55.845 1.90516e-07 
401 1 0.214338 0.10718 0.123481 55.845 3.02584e-08 
408 1 0.142818 -2.73557e-05 0.165828 55.845 -9.80343e-08 
409 1 0.178558 7.62436e-06 0.12352 55.845 9.69731e-08 
410 1 0.178557 0.0356603 0.165774 55.845 9.1618e-08 
411 1 0.214269 0.0357914 0.123554 55.845 1.39184e-07 
412 1 0.21426 0.0714578 0.165678 55.845 5.42279e-08 
413 1 0.249951 0.0714343 0.12358 55.845 2.3142e-07 
414 1 0.249944 0.107142 0.165803 55.845 -1.78203e-07 
424 1 0.214279 2.80996e-05 0.165715 55.845 -1.16297e-08 
426 1 0.250062 0.0356478 0.165779 55.845 -7.18713e-08 
489 1 0.142857 0.107143 0.0416667 55.845 -2.24985e-07 
499 1 0.142857 0.0357143 0.0416667 55.845 -3.72349e-07 
500 1 0.142876 0.0713581 0.0828339 55.845 2.32662e-07 
501 1 0.178571 0.0714286 0.0416667 55.845 -3.01927e-07 
502 1 0.178585 0.107108 0.0828998 55.845 2.40759e-07 
503 1 0.214286 0.107143 0.0416667 55.845 -2.47412e-07 
510 1 0.142828 -3.83641e-05 0.0827248 55.845 1.89848e-07 
511 1 0.178571 0 0.0416667 55.845 -4.40529e-07 
512 1 0.178509 0.03573 0.0828058 55.845 2.48469e-07 
513 1 0.214286 0.0357143 0.0416667 55.845 -3.76051e-07 
514 1 0.214253 0.0714228 0.0829009 55.845 1.86862e-07 
515 1 0.25 0.0714286 0.0416667 55.845 -2.54394e-07 
516 1 0.250074 0.107131 0.0826687 55.845 -1.81599e-08 
526 1 0.214313 3.5182e-05 0.0827255 55.845 1.89155e-07 
528 1 0.250023 0.0357247 0.0828509 55.845 1.44865e-07 
581 1 0.142857 0.0714286 0 55.845 2.4474e-07 
582 1 0.178571 0.107143 0 55.845 1.62744e-07 
586 1 0.142857 0 0 55.845 2.45283e-07 
587 1 0.178571 0.0357143 0 55.845 2.84882e-07 
588 1 0.214286 0.0714286 0 55.845 1.98314e-07 
589 1 0.25 0.107143 0 55.845 1.46003e-07 
594 1 0.214286 0 0 55.845 2.55529e-07 
595 1 0.25 0.0357143 0 55.845 2.19308e-07 
313 1 0.285687 0.107017 0.20813 55.845 -6.66276e-07 
323 1 0.250002 -4.76276e-05 0.208053 55.845 -5.16693e-07 
325 1 0.285734 0.035724 0.207968 55.845 -5.73323e-07 
327 1 0.321441 0.0713596 0.208024 55.845 -6.89274e-07 
329 1 0.357126 0.107194 0.208024 55.845 -7.5698e-07 
337 1 0.321396 3.87922e-05 0.208052 55.845 -6.68048e-07 
339 1 0.357098 0.0357078 0.208001 55.845 -5.87903e-07 
415 1 0.285785 0.107171 0.123651 55.845 1.87262e-07 
425 1 0.250019 4.42373e-05 0.123685 55.845 2.47793e-07 
427 1 0.285741 0.0357801 0.123555 55.845 1.67683e-07 
428 1 0.285696 0.0714565 0.165693 55.845 -7.6292e-08 
429 1 0.321389 0.071353 0.123441 55.845 4.44289e-08 
430 1 0.321491 0.107085 0.165857 55.845 -1.85882e-08 
431 1 0.357103 0.10714 0.123579 55.845 -1.39213e-08 
439 1 0.321417 -7.24891e-06 0.123747 55.845 -8.33674e-08 
440 1 0.321377 0.0356861 0.165682 55.845 -4.01723e-08 
441 1 0.357156 0.03567 0.123332 55.845 -1.04499e-07 
442 1 0.357076 0.071361 0.16559 55.845 1.62723e-07 
517 1 0.285714 0.107143 0.0416667 55.845 -2.47632e-07 
527 1 0.25 0 0.0416667 55.845 -3.79338e-07 
529 1 0.285714 0.0357143 0.0416667 55.845 -2.98091e-07 
530 1 0.285748 0.0714555 0.0826625 55.845 7.07344e-08 
531 1 0.321429 0.0714286 0.0416667 55.845 -3.10192e-07 
532 1 0.321413 0.107033 0.0827629 55.845 1.87782e-07 
533 1 0.357143 0.107143 0.0416667 55.845 -3.34307e-07 
603 1 0.357143 0.0714286 0 55.845 1.94377e-07 
541 1 0.321429 0 0.0416667 55.845 -3.77004e-07 
542 1 0.321386 0.0357306 0.0826928 55.845 9.84242e-08 
543 1 0.357143 0.0357143 0.0416667 55.845 -3.06056e-07 
544 1 0.35718 0.0714225 0.0826388 55.845 2.71964e-07 
602 1 0.321429 0.0357143 0 55.845 1.62441e-07 
596 1 0.285714 0.0714286 0 55.845 2.24524e-07 
597 1 0.321429 0.107143 0 55.845 2.06834e-07 
612 1 0.464286 0.0357143 0 55.845 1.80333e-08 
611 1 0.428571 0 0 55.845 -1.70367e-08 
610 1 0.464286 0.107143 0 55.845 1.99414e-07 
609 1 0.428571 0.0714286 0 55.845 1.69707e-07 
608 1 0.392857 0.0357143 0 55.845 8.29215e-08 
341 1 0.392851 0.0713948 0.208062 55.845 -5.22274e-07 
343 1 0.428561 0.107179 0.208063 55.845 -6.23879e-07 
348 1 0.392877 5.67465e-05 0.208091 55.845 -2.93953e-07 
350 1 0.428538 0.0356629 0.208025 55.845 -2.11215e-07 
352 1 0.464286 0.0714408 0.208183 55.845 -2.70514e-07 
355 1 0.46434 -9.56007e-05 0.208076 55.845 9.20787e-08 
443 1 0.392854 0.0713414 0.123538 55.845 -1.16907e-07 
444 1 0.392811 0.107116 0.165692 55.845 1.40745e-07 
445 1 0.428539 0.107206 0.123563 55.845 8.37383e-08 
604 1 0.392857 0.107143 0 55.845 2.16422e-07 
450 1 0.392885 2.00892e-06 0.123553 55.845 -1.756e-07 
451 1 0.392801 0.0357162 0.165636 55.845 7.03393e-08 
452 1 0.428586 0.0357566 0.123647 55.845 1.81017e-08 
453 1 0.428619 0.0714369 0.165779 55.845 1.49763e-08 
454 1 0.464239 0.0715086 0.123592 55.845 1.73358e-07 
455 1 0.464315 0.107204 0.165658 55.845 -1.38442e-07 
456 1 0.428605 4.31231e-05 0.165735 55.845 5.53766e-08 
457 1 0.464344 6.12772e-05 0.123485 55.845 2.40764e-08 
458 1 0.464321 0.0357293 0.165826 55.845 -7.22563e-08 
545 1 0.392857 0.0714286 0.0416667 55.845 -1.9031e-07 
546 1 0.392909 0.107098 0.0827307 55.845 3.05033e-07 
547 1 0.428571 0.107143 0.0416667 55.845 -3.2878e-07 
552 1 0.392857 0 0.0416667 55.845 -1.19872e-07 
553 1 0.392913 0.0356679 0.0826831 55.845 1.75892e-07 
554 1 0.428571 0.0357143 0.0416667 55.845 1.48113e-08 
555 1 0.428535 0.0714497 0.0826001 55.845 8.21605e-08 
556 1 0.464286 0.0714286 0.0416667 55.845 -1.2954e-07 
557 1 0.464287 0.107133 0.0826468 55.845 7.60971e-08 
558 1 0.428579 7.7073e-05 0.082682 55.845 1.03828e-09 
559 1 0.464286 0 0.0416667 55.845 2.51315e-07 
560 1 0.464291 0.0357473 0.0827939 55.845 -4.54862e-08 
255 1 -7.10367e-06 0.178597 0.208028 55.845 -3.81632e-07 
257 1 0.0356817 0.214294 0.20815 55.845 -3.3524e-07 
261 1 0.0357244 0.142895 0.208011 55.845 -3.79254e-07 
263 1 0.0714018 0.178616 0.208129 55.845 -3.34772e-07 
265 1 0.10709 0.214272 0.208139 55.845 -3.28041e-07 
273 1 0.107128 0.142767 0.207995 55.845 -4.8236e-07 
357 1 1.8564e-05 0.178574 0.123615 55.845 6.7122e-08 
358 1 -4.5782e-05 0.214313 0.165746 55.845 1.11973e-07 
359 1 0.0357088 0.214347 0.123705 55.845 5.8546e-08 
360 1 0.0357014 0.249985 0.165815 55.845 -3.99018e-08 
362 1 -3.75465e-05 0.142866 0.165755 55.845 -7.86743e-08 
363 1 0.0356963 0.142826 0.123551 55.845 2.19833e-07 
364 1 0.0357375 0.178623 0.165759 55.845 -6.83327e-08 
365 1 0.071464 0.1786 0.123693 55.845 1.49945e-07 
366 1 0.0713904 0.214393 0.165693 55.845 -6.25823e-08 
367 1 0.107123 0.214278 0.123449 55.845 -4.35428e-09 
368 1 0.107179 0.249996 0.165521 55.845 -8.33785e-08 
374 1 0.0714562 0.142861 0.1657 55.845 -1.43163e-07 
375 1 0.107128 0.142805 0.123497 55.845 9.27403e-08 
376 1 0.107155 0.178603 0.165865 55.845 6.26728e-10 
459 1 0 0.178571 0.0416667 55.845 -2.23107e-07 
460 1 2.37991e-05 0.214284 0.0828558 55.845 1.86786e-07 
461 1 0.0357143 0.214286 0.0416667 55.845 -2.01531e-07 
462 1 0.035765 0.250035 0.0828449 55.845 6.42581e-08 
464 1 -6.09436e-06 0.142857 0.0828062 55.845 2.0147e-07 
465 1 0.0357143 0.142857 0.0416667 55.845 -2.71818e-07 
466 1 0.0356782 0.178555 0.0828509 55.845 1.84671e-07 
467 1 0.0714286 0.178571 0.0416667 55.845 -1.3958e-07 
468 1 0.0713646 0.214281 0.0827034 55.845 5.55997e-09 
469 1 0.107143 0.214286 0.0416667 55.845 -6.57755e-08 
470 1 0.107174 0.249983 0.0827195 55.845 -4.78418e-08 
476 1 0.071394 0.142888 0.0827813 55.845 7.95223e-08 
477 1 0.107143 0.142857 0.0416667 55.845 -1.63845e-07 
478 1 0.107145 0.178632 0.0827665 55.845 1.63494e-07 
561 1 0 0.214286 0 55.845 1.53117e-07 
562 1 0.0357143 0.25 0 55.845 8.35012e-08 
563 1 0 0.142857 0 55.845 2.37273e-07 
564 1 0.0357143 0.178571 0 55.845 1.84346e-07 
565 1 0.0714286 0.214286 0 55.845 1.29602e-07 
566 1 0.107143 0.25 0 55.845 -6.37989e-09 
569 1 0.0714286 0.142857 0 55.845 1.93765e-07 
570 1 0.107143 0.178571 0 55.845 1.27437e-07 
275 1 0.142895 0.178574 0.208167 55.845 -4.43138e-07 
277 1 0.178542 0.21424 0.208085 55.845 -3.59034e-07 
287 1 0.178567 0.142874 0.2081 55.845 -5.50689e-07 
289 1 0.21435 0.17854 0.208181 55.845 -2.98515e-07 
291 1 0.249981 0.214307 0.208082 55.845 -1.67164e-07 
301 1 0.250031 0.14286 0.208091 55.845 -5.33625e-07 
377 1 0.14294 0.178609 0.123562 55.845 -1.10307e-07 
378 1 0.142768 0.214307 0.165777 55.845 7.56693e-08 
379 1 0.178617 0.2144 0.123673 55.845 -1.57471e-07 
388 1 0.142837 0.142949 0.165846 55.845 2.04507e-07 
389 1 0.178566 0.142853 0.123534 55.845 -5.57733e-08 
390 1 0.178635 0.178601 0.165765 55.845 1.75749e-07 
391 1 0.214297 0.178609 0.123471 55.845 9.17473e-08 
392 1 0.214324 0.214274 0.165827 55.845 5.35011e-08 
393 1 0.249905 0.214365 0.123569 55.845 1.73091e-07 
402 1 0.214317 0.142943 0.165714 55.845 2.22558e-08 
403 1 0.250038 0.142873 0.123668 55.845 1.74035e-07 
404 1 0.250041 0.178569 0.165707 55.845 -5.36181e-08 
479 1 0.142857 0.178571 0.0416667 55.845 -8.50194e-08 
480 1 0.142844 0.214288 0.0827447 55.845 8.21458e-08 
481 1 0.178571 0.214286 0.0416667 55.845 -8.39862e-09 
490 1 0.142838 0.142838 0.0827929 55.845 2.18483e-07 
491 1 0.178571 0.142857 0.0416667 55.845 -2.02879e-07 
492 1 0.178581 0.178596 0.0828216 55.845 1.49205e-07 
493 1 0.214286 0.178571 0.0416667 55.845 -5.65897e-08 
494 1 0.214256 0.214372 0.0826274 55.845 3.91575e-08 
495 1 0.25 0.214286 0.0416667 55.845 4.01865e-08 
504 1 0.214323 0.142905 0.0827082 55.845 6.38814e-08 
505 1 0.25 0.142857 0.0416667 55.845 -2.15176e-07 
506 1 0.250017 0.178609 0.0828248 55.845 1.17188e-08 
571 1 0.142857 0.214286 0 55.845 3.27595e-08 
576 1 0.142857 0.142857 0 55.845 1.67601e-07 
577 1 0.178571 0.178571 0 55.845 1.02714e-07 
578 1 0.214286 0.214286 0 55.845 7.80487e-08 
583 1 0.214286 0.142857 0 55.845 1.01575e-07 
584 1 0.25 0.178571 0 55.845 7.88677e-08 
303 1 0.285793 0.178599 0.208137 55.845 -4.52007e-07 
305 1 0.321354 0.214341 0.208073 55.845 -6.28249e-07 
315 1 0.321409 0.142796 0.208088 55.845 -6.88136e-07 
317 1 0.357156 0.178643 0.208116 55.845 -8.13143e-07 
405 1 0.285744 0.178642 0.123689 55.845 1.93353e-07 
406 1 0.285663 0.214345 0.16581 55.845 -5.88351e-08 
407 1 0.321452 0.214341 0.123578 55.845 1.4314e-07 
416 1 0.285678 0.142787 0.165839 55.845 -1.79031e-07 
417 1 0.321306 0.142798 0.123659 55.845 1.16478e-07 
418 1 0.321449 0.178585 0.16578 55.845 -2.0415e-08 
419 1 0.357115 0.178613 0.123613 55.845 4.63937e-08 
420 1 0.357119 0.214266 0.165776 55.845 2.36614e-08 
432 1 0.357094 0.142856 0.165825 55.845 1.14845e-07 
507 1 0.285714 0.178571 0.0416667 55.845 -1.68726e-07 
508 1 0.285726 0.214255 0.0828372 55.845 1.85476e-08 
509 1 0.321429 0.214286 0.0416667 55.845 -2.53003e-07 
518 1 0.285645 0.142892 0.0827077 55.845 -4.11793e-08 
519 1 0.321429 0.142857 0.0416667 55.845 -3.43852e-07 
520 1 0.321429 0.178539 0.0827583 55.845 6.10139e-08 
521 1 0.357143 0.178571 0.0416667 55.845 -4.62174e-07 
522 1 0.357157 0.214221 0.0827323 55.845 1.97306e-07 
534 1 0.357079 0.14281 0.0829206 55.845 2.69456e-07 
585 1 0.285714 0.214286 0 55.845 1.60342e-07 
590 1 0.285714 0.142857 0 55.845 1.3387e-07 
591 1 0.321429 0.178571 0 55.845 1.643e-07 
592 1 0.357143 0.214286 0 55.845 2.51774e-07 
598 1 0.357143 0.142857 0 55.845 2.43568e-07 
319 1 0.392848 0.214291 0.20812 55.845 -8.15574e-07 
321 1 0.428538 0.250052 0.208058 55.845 -9.03586e-07 
331 1 0.392899 0.142833 0.207949 55.845 -8.58946e-07 
333 1 0.428578 0.178619 0.208054 55.845 -7.68425e-07 
335 1 0.464285 0.214281 0.208102 55.845 -8.19666e-07 
345 1 0.464257 0.142921 0.208206 55.845 -8.25118e-07 
606 1 0.464286 0.178571 0 55.845 4.01215e-07 
421 1 0.392826 0.214178 0.123707 55.845 2.29619e-07 
422 1 0.392735 0.250022 0.165741 55.845 -1.18962e-07 
423 1 0.428493 0.24995 0.123575 55.845 4.21726e-07 
433 1 0.39284 0.142833 0.12359 55.845 6.90631e-08 
434 1 0.392788 0.178577 0.165878 55.845 1.11902e-07 
435 1 0.42853 0.178546 0.123603 55.845 3.32893e-07 
436 1 0.428626 0.214329 0.165745 55.845 -4.01178e-08 
437 1 0.464331 0.214306 0.123664 55.845 5.69999e-07 
605 1 0.428571 0.142857 0 55.845 3.00576e-07 
446 1 0.428552 0.142946 0.165738 55.845 -3.07347e-08 
447 1 0.464288 0.142859 0.123501 55.845 2.51417e-07 
448 1 0.464313 0.178628 0.165724 55.845 -1.16078e-07 
523 1 0.392857 0.214286 0.0416667 55.845 -4.56098e-07 
524 1 0.392808 0.249941 0.0828493 55.845 2.45547e-07 
525 1 0.428571 0.25 0.0416667 55.845 -5.95892e-07 
535 1 0.392857 0.142857 0.0416667 55.845 -4.758e-07 
536 1 0.392845 0.178558 0.0828604 55.845 2.7248e-07 
537 1 0.428571 0.178571 0.0416667 55.845 -5.02723e-07 
538 1 0.428612 0.214258 0.082796 55.845 1.67981e-07 
539 1 0.464286 0.214286 0.0416667 55.845 -6.04777e-07 
548 1 0.428577 0.142855 0.0826452 55.845 2.79792e-07 
549 1 0.464286 0.142857 0.0416667 55.845 -4.65464e-07 
550 1 0.464262 0.178644 0.0827475 55.845 2.71342e-07 
593 1 0.392857 0.25 0 55.845 2.8257e-07 
599 1 0.392857 0.178571 0 55.845 3.31359e-07 
600 1 0.428571 0.214286 0 55.845 4.24249e-07 
3 1 -5.76581e-05 0.107093 0.458594 55.845 -4.84233e-07 
7 1 -5.41521e-05 0.0357858 0.45863 55.845 -3.2403e-07 
8 1 0.0356472 0.0714161 0.458586 55.845 -4.18255e-07 
9 1 0.0713667 0.107131 0.458508 55.845 -2.83923e-07 
13 1 0.0357615 1.76928e-05 0.458468 55.845 -2.06693e-07 
14 1 0.0713924 0.0357165 0.45856 55.845 -2.23328e-07 
15 1 0.107104 0.0714137 0.458623 55.845 -1.77373e-07 
20 1 0.107149 4.33475e-05 0.458625 55.845 -3.52582e-07 
55 1 -6.44016e-05 0.107088 0.375168 55.845 -4.63487e-07 
63 1 -6.19659e-05 0.0357669 0.37496 55.845 -4.03435e-07 
64 1 -5.29649e-05 0.0713588 0.416963 55.845 2.30715e-07 
65 1 0.035652 0.071394 0.374981 55.845 -4.26887e-07 
66 1 0.0356812 0.107068 0.416759 55.845 2.15251e-07 
67 1 0.0713785 0.107081 0.375082 55.845 -4.07646e-07 
74 1 -6.00419e-05 6.34645e-05 0.416901 55.845 1.18422e-07 
75 1 0.0357764 2.8821e-05 0.375075 55.845 -4.23838e-07 
76 1 0.0356168 0.0357224 0.416857 55.845 2.00746e-07 
77 1 0.0714421 0.035648 0.375025 55.845 -4.40827e-07 
78 1 0.0713994 0.0714208 0.416789 55.845 1.00724e-07 
79 1 0.107149 0.0714355 0.375192 55.845 -3.43858e-07 
80 1 0.107053 0.107157 0.416864 55.845 9.6093e-08 
88 1 0.0714222 -9.70983e-07 0.417002 55.845 3.06163e-07 
89 1 0.107145 -2.25271e-05 0.375185 55.845 -5.42571e-07 
90 1 0.107077 0.0357002 0.416829 55.845 2.45475e-07 
157 1 9.75561e-06 0.107123 0.291202 55.845 2.92966e-07 
165 1 -4.72893e-05 0.0357236 0.291219 55.845 4.44175e-08 
166 1 -7.49975e-05 0.0714647 0.333184 55.845 8.74555e-08 
167 1 0.035644 0.0713735 0.291319 55.845 1.45143e-07 
168 1 0.0357164 0.10713 0.333204 55.845 2.28857e-08 
169 1 0.0714087 0.107046 0.291464 55.845 2.68023e-07 
176 1 -5.69504e-05 2.95541e-05 0.333337 55.845 1.42385e-07 
177 1 0.0356316 -4.06141e-05 0.291352 55.845 8.81527e-08 
178 1 0.0357742 0.0356692 0.333114 55.845 1.55871e-07 
179 1 0.0713621 0.0356758 0.29123 55.845 1.43921e-07 
180 1 0.0714558 0.0713462 0.333271 55.845 1.12787e-08 
181 1 0.107092 0.0713505 0.291422 55.845 2.02627e-07 
182 1 0.10711 0.10713 0.333397 55.845 7.51651e-08 
190 1 0.0714243 -4.47584e-06 0.333318 55.845 1.6163e-07 
191 1 0.107079 6.43839e-05 0.291376 55.845 1.05033e-07 
192 1 0.107093 0.0356662 0.33345 55.845 1.10243e-07 
268 1 -6.42073e-05 0.0714695 0.24987 55.845 3.47855e-07 
270 1 0.0356438 0.107106 0.249956 55.845 1.95566e-07 
278 1 -7.49635e-05 2.04644e-05 0.250061 55.845 4.71409e-07 
280 1 0.035756 0.0356953 0.249958 55.845 5.26168e-07 
282 1 0.0714052 0.071397 0.250103 55.845 3.71917e-07 
284 1 0.107146 0.107095 0.250141 55.845 4.18132e-07 
292 1 0.0713411 -2.38321e-05 0.249989 55.845 3.25808e-07 
294 1 0.107103 0.0357157 0.25001 55.845 5.22925e-07 
16 1 0.14282 0.107121 0.458503 55.845 -6.80463e-08 
21 1 0.142776 0.0356835 0.458499 55.845 -3.23768e-07 
22 1 0.178514 0.0714474 0.458334 55.845 -2.06878e-07 
23 1 0.214376 0.107185 0.458627 55.845 -2.35193e-07 
27 1 0.178669 2.80827e-05 0.458729 55.845 -4.66743e-07 
28 1 0.214256 0.0356665 0.458623 55.845 -3.59954e-07 
29 1 0.250031 0.0714402 0.458617 55.845 -3.17163e-07 
81 1 0.14285 0.107184 0.375225 55.845 -2.51058e-07 
91 1 0.142874 0.035732 0.375098 55.845 -4.89996e-07 
92 1 0.142825 0.0713803 0.416974 55.845 1.296e-07 
93 1 0.178584 0.0714344 0.375047 55.845 -3.55697e-07 
94 1 0.178568 0.107187 0.416914 55.845 1.53532e-07 
95 1 0.214266 0.107194 0.375132 55.845 -5.68755e-07 
102 1 0.142944 -7.50679e-06 0.416898 55.845 3.04496e-07 
103 1 0.178553 5.01438e-06 0.375052 55.845 -5.27606e-07 
104 1 0.178536 0.0357034 0.416831 55.845 3.02614e-07 
105 1 0.214252 0.0355758 0.375018 55.845 -4.90544e-07 
106 1 0.214373 0.0714437 0.416791 55.845 3.2189e-07 
107 1 0.25009 0.0713844 0.375217 55.845 -5.5355e-07 
108 1 0.249914 0.107165 0.416916 55.845 3.61959e-07 
118 1 0.214315 -6.31119e-06 0.416841 55.845 4.48676e-07 
120 1 0.249983 0.0356777 0.416919 55.845 4.92635e-07 
183 1 0.142859 0.107117 0.29145 55.845 9.50169e-08 
193 1 0.142842 0.0356767 0.291413 55.845 -6.03576e-08 
194 1 0.142857 0.0714334 0.333266 55.845 1.72857e-07 
195 1 0.178579 0.0713993 0.291295 55.845 -2.31991e-08 
196 1 0.178494 0.107196 0.333174 55.845 3.62516e-07 
197 1 0.214312 0.107094 0.291481 55.845 -3.16156e-08 
204 1 0.142782 -5.73641e-06 0.333303 55.845 1.53541e-07 
205 1 0.178591 -1.54105e-05 0.291354 55.845 8.69957e-09 
206 1 0.178552 0.0356853 0.333142 55.845 2.36937e-07 
207 1 0.214288 0.0357541 0.291183 55.845 6.13803e-08 
208 1 0.214302 0.0712949 0.333349 55.845 3.39009e-07 
209 1 0.250026 0.0714767 0.291305 55.845 3.49191e-08 
210 1 0.249994 0.107079 0.333358 55.845 2.49737e-07 
220 1 0.214323 -1.28556e-05 0.33317 55.845 3.25274e-07 
222 1 0.25005 0.0356829 0.333261 55.845 2.99727e-07 
296 1 0.142807 0.0714107 0.250015 55.845 5.7161e-07 
298 1 0.178615 0.107124 0.250018 55.845 5.72274e-07 
306 1 0.142844 -3.8857e-05 0.250054 55.845 4.22647e-07 
308 1 0.178506 0.0357263 0.249995 55.845 5.8826e-07 
310 1 0.214298 0.0714155 0.249967 55.845 5.20313e-07 
312 1 0.249969 0.107173 0.250103 55.845 3.91747e-07 
322 1 0.214313 3.01733e-05 0.249903 55.845 5.18014e-07 
324 1 0.25001 0.0357656 0.250027 55.845 4.68766e-07 
30 1 0.285782 0.107132 0.458545 55.845 -3.39127e-07 
35 1 0.250064 -5.22744e-06 0.45849 55.845 -3.78827e-07 
36 1 0.285747 0.0356475 0.458532 55.845 -3.44975e-07 
37 1 0.321397 0.0714829 0.458552 55.845 -2.63724e-07 
38 1 0.357134 0.107142 0.458581 55.845 -2.86356e-07 
42 1 0.321366 6.6906e-06 0.458597 55.845 -2.93801e-07 
43 1 0.357146 0.0357142 0.458453 55.845 -1.74095e-07 
109 1 0.285698 0.107231 0.37516 55.845 -5.77392e-07 
119 1 0.250053 3.81989e-05 0.375077 55.845 -4.64608e-07 
121 1 0.285717 0.0357578 0.375018 55.845 -4.97925e-07 
122 1 0.285677 0.0714079 0.416882 55.845 4.24215e-07 
123 1 0.321319 0.0714415 0.375146 55.845 -4.55028e-07 
124 1 0.321414 0.107178 0.416832 55.845 3.29349e-07 
125 1 0.357183 0.107178 0.375082 55.845 -3.0194e-07 
133 1 0.32139 -1.25854e-05 0.375145 55.845 -5.29628e-07 
134 1 0.321462 0.0357357 0.416944 55.845 1.73303e-07 
135 1 0.357147 0.035724 0.375175 55.845 -3.88775e-07 
136 1 0.357097 0.0715091 0.416799 55.845 2.07751e-07 
211 1 0.285691 0.107154 0.291459 55.845 -1.05264e-07 
221 1 0.249936 1.14736e-05 0.291192 55.845 2.42474e-07 
223 1 0.285721 0.0356558 0.291231 55.845 1.46751e-07 
224 1 0.285757 0.0714389 0.333274 55.845 2.80628e-07 
225 1 0.321469 0.0713255 0.291313 55.845 9.59723e-09 
226 1 0.321465 0.107107 0.333294 55.845 2.80536e-07 
227 1 0.357165 0.107149 0.291377 55.845 2.90385e-08 
235 1 0.321398 -3.31134e-05 0.291312 55.845 5.87864e-08 
236 1 0.321448 0.0356846 0.333279 55.845 2.41731e-07 
237 1 0.357171 0.0357882 0.291383 55.845 1.26334e-07 
238 1 0.357137 0.071423 0.333359 55.845 2.65184e-07 
326 1 0.285743 0.0714389 0.250093 55.845 3.98132e-07 
328 1 0.321403 0.107119 0.250034 55.845 4.85789e-07 
338 1 0.321461 0.0356937 0.249976 55.845 3.49523e-07 
340 1 0.357163 0.0714628 0.249874 55.845 4.97213e-07 
44 1 0.392806 0.0713434 0.458496 55.845 -7.571e-08 
45 1 0.428534 0.107122 0.458644 55.845 -2.40959e-07 
47 1 0.392858 -4.76793e-05 0.458573 55.845 1.75142e-08 
48 1 0.428487 0.0356931 0.458591 55.845 1.14142e-07 
49 1 0.464274 0.0714994 0.458611 55.845 -8.71386e-08 
50 1 0.464331 -1.68315e-06 0.458403 55.845 2.63348e-07 
137 1 0.392847 0.0714148 0.375149 55.845 -2.50167e-07 
138 1 0.392801 0.107199 0.417019 55.845 1.95406e-07 
139 1 0.428549 0.107166 0.375219 55.845 -4.11535e-07 
144 1 0.392883 -1.26569e-05 0.375158 55.845 -4.02609e-07 
145 1 0.392853 0.0357195 0.416828 55.845 5.81552e-08 
146 1 0.4286 0.0357262 0.375305 55.845 -3.78734e-07 
147 1 0.428553 0.0714051 0.417052 55.845 8.97524e-08 
148 1 0.464173 0.0714729 0.37513 55.845 -3.73242e-07 
149 1 0.464275 0.107103 0.416879 55.845 1.41887e-07 
150 1 0.428568 -7.38847e-05 0.416735 55.845 -1.67273e-07 
151 1 0.464285 -4.79332e-05 0.375176 55.845 -4.94192e-07 
152 1 0.464224 0.0357306 0.416892 55.845 -7.74226e-08 
239 1 0.392783 0.0714811 0.291339 55.845 1.11207e-07 
240 1 0.392838 0.107178 0.333402 55.845 1.43553e-07 
241 1 0.428553 0.107136 0.291422 55.845 1.34876e-07 
246 1 0.39286 -8.43935e-05 0.291247 55.845 2.56264e-07 
247 1 0.392883 0.0357571 0.333223 55.845 3.26107e-07 
248 1 0.428465 0.0356791 0.291271 55.845 3.86221e-07 
249 1 0.428579 0.0713982 0.333325 55.845 1.80802e-07 
250 1 0.464268 0.0714128 0.291402 55.845 3.42299e-07 
251 1 0.464248 0.107117 0.333358 55.845 1.10012e-07 
252 1 0.428541 -5.85862e-05 0.333175 55.845 4.76006e-07 
253 1 0.46431 -7.43938e-06 0.29145 55.845 4.29643e-07 
254 1 0.464251 0.0357501 0.333367 55.845 4.25134e-07 
342 1 0.392842 0.107189 0.249932 55.845 5.77143e-07 
349 1 0.392818 0.0357235 0.249964 55.845 1.127e-07 
351 1 0.428537 0.0714782 0.250021 55.845 1.97698e-07 
353 1 0.46424 0.10715 0.250121 55.845 2.14808e-07 
354 1 0.428581 2.24885e-05 0.249943 55.845 -2.37739e-07 
356 1 0.464205 0.035662 0.250064 55.845 -2.51371e-07 
1 1 -7.1719e-05 0.178467 0.458561 55.845 -3.78399e-07 
2 1 0.0356414 0.214254 0.458478 55.845 -2.83248e-07 
4 1 0.0357137 0.142916 0.458433 55.845 -3.81382e-07 
5 1 0.0714193 0.178613 0.458459 55.845 -2.26572e-07 
6 1 0.107152 0.214225 0.458453 55.845 -9.10419e-08 
10 1 0.107148 0.142896 0.458337 55.845 -2.92993e-08 
51 1 -0.000101315 0.178589 0.375237 55.845 -4.92065e-07 
52 1 -1.66552e-05 0.214252 0.416853 55.845 2.72292e-07 
53 1 0.0356956 0.214356 0.375146 55.845 -4.54558e-07 
54 1 0.0357049 0.250027 0.416797 55.845 1.70876e-07 
56 1 5.46398e-05 0.142764 0.416804 55.845 4.18779e-07 
57 1 0.0356991 0.142838 0.375124 55.845 -5.18642e-07 
58 1 0.0357075 0.178575 0.416837 55.845 3.37466e-07 
59 1 0.0714086 0.178624 0.375011 55.845 -4.73672e-07 
60 1 0.0713757 0.214274 0.416928 55.845 2.10406e-07 
61 1 0.107115 0.214305 0.374924 55.845 -4.96108e-07 
62 1 0.10713 0.25001 0.416898 55.845 4.12239e-08 
68 1 0.0713887 0.142889 0.416729 55.845 1.48905e-07 
69 1 0.107187 0.142924 0.374969 55.845 -3.13758e-07 
70 1 0.107103 0.178544 0.416739 55.845 1.13296e-07 
153 1 -0.000134087 0.178571 0.291349 55.845 2.55595e-07 
154 1 3.5477e-06 0.214352 0.333403 55.845 3.24542e-07 
155 1 0.0356866 0.214295 0.291327 55.845 2.69279e-07 
156 1 0.0357272 0.250018 0.333199 55.845 3.33293e-07 
158 1 -6.35525e-05 0.142813 0.333308 55.845 2.51368e-07 
159 1 0.0356283 0.142848 0.291339 55.845 2.86982e-07 
160 1 0.0356593 0.178516 0.333286 55.845 2.30693e-07 
161 1 0.0713606 0.178486 0.291267 55.845 2.89268e-07 
162 1 0.0714801 0.214226 0.333183 55.845 3.78295e-07 
163 1 0.107142 0.214294 0.291299 55.845 2.05006e-07 
164 1 0.107213 0.250057 0.333245 55.845 3.90443e-07 
170 1 0.0713718 0.142838 0.333116 55.845 1.55032e-07 
171 1 0.107098 0.142872 0.291219 55.845 2.12179e-07 
172 1 0.107184 0.178621 0.333118 55.845 2.30883e-07 
256 1 -4.3898e-05 0.214332 0.250086 55.845 1.79697e-07 
258 1 0.0357664 0.249999 0.250045 55.845 2.12022e-07 
260 1 -0.000101184 0.142836 0.249967 55.845 1.60427e-07 
262 1 0.0356574 0.178585 0.250185 55.845 8.79331e-08 
264 1 0.0713857 0.214259 0.249992 55.845 7.18646e-08 
266 1 0.107202 0.250041 0.249944 55.845 -2.52321e-08 
272 1 0.0713998 0.14285 0.250095 55.845 9.67042e-08 
274 1 0.107064 0.178607 0.25006 55.845 1.52679e-07 
11 1 0.142845 0.178513 0.458458 55.845 -2.13685e-08 
12 1 0.178621 0.214269 0.458539 55.845 -1.96353e-08 
17 1 0.178588 0.14284 0.458559 55.845 -3.45765e-08 
18 1 0.214287 0.178514 0.458654 55.845 -6.69268e-08 
19 1 0.250013 0.214251 0.458654 55.845 -4.44052e-08 
24 1 0.249987 0.142849 0.458508 55.845 -2.68799e-07 
71 1 0.142884 0.178561 0.375093 55.845 -3.41331e-07 
72 1 0.142888 0.214292 0.416856 55.845 1.14373e-08 
73 1 0.178664 0.214248 0.374996 55.845 -4.63263e-07 
82 1 0.142911 0.142844 0.416772 55.845 1.43666e-08 
83 1 0.178551 0.142786 0.375066 55.845 -3.47291e-07 
84 1 0.178649 0.178567 0.416923 55.845 7.90782e-08 
85 1 0.214296 0.17861 0.375164 55.845 -4.23905e-07 
86 1 0.21432 0.214292 0.416929 55.845 7.60159e-08 
87 1 0.250011 0.214278 0.375245 55.845 -3.89157e-07 
96 1 0.214243 0.14288 0.416982 55.845 1.58715e-07 
97 1 0.24996 0.142897 0.375165 55.845 -6.23749e-07 
98 1 0.250067 0.178595 0.416977 55.845 3.06269e-07 
173 1 0.142886 0.178556 0.291407 55.845 1.00247e-07 
174 1 0.142877 0.214286 0.333215 55.845 3.42936e-07 
175 1 0.178591 0.214273 0.291333 55.845 1.8227e-07 
184 1 0.142826 0.142834 0.333193 55.845 3.47143e-07 
185 1 0.178477 0.142847 0.291314 55.845 1.02367e-07 
186 1 0.178655 0.178545 0.333268 55.845 4.59632e-07 
187 1 0.214321 0.1786 0.29122 55.845 1.47661e-07 
188 1 0.214409 0.214269 0.333175 55.845 4.32324e-07 
189 1 0.250091 0.214331 0.291351 55.845 3.34892e-07 
198 1 0.214312 0.142947 0.333437 55.845 4.98319e-07 
199 1 0.249986 0.142788 0.291405 55.845 6.75461e-08 
200 1 0.250037 0.178618 0.333289 55.845 4.8831e-07 
276 1 0.142833 0.214323 0.250124 55.845 -2.56841e-08 
286 1 0.142793 0.142823 0.249956 55.845 3.86029e-07 
288 1 0.17852 0.178558 0.249987 55.845 2.53435e-07 
290 1 0.214238 0.214347 0.250037 55.845 6.31762e-09 
300 1 0.214222 0.142852 0.250231 55.845 3.31664e-07 
302 1 0.249989 0.178563 0.250024 55.845 2.50006e-07 
25 1 0.285725 0.178522 0.458675 55.845 -1.93961e-07 
26 1 0.321389 0.214231 0.458562 55.845 -3.00868e-07 
31 1 0.321407 0.142806 0.458562 55.845 -2.9822e-07 
32 1 0.357111 0.178511 0.458632 55.845 -3.70754e-07 
99 1 0.285672 0.178487 0.375163 55.845 -5.24701e-07 
100 1 0.285707 0.214189 0.417117 55.845 1.55482e-07 
101 1 0.32138 0.214217 0.375183 55.845 -4.89076e-07 
110 1 0.28574 0.142848 0.416943 55.845 2.93356e-07 
111 1 0.321417 0.142746 0.375145 55.845 -5.554e-07 
112 1 0.321288 0.178581 0.416894 55.845 2.80957e-07 
113 1 0.357042 0.178588 0.375112 55.845 -4.72506e-07 
114 1 0.357176 0.214208 0.417093 55.845 3.0269e-07 
126 1 0.357148 0.142912 0.416849 55.845 2.86215e-07 
201 1 0.285786 0.178654 0.29135 55.845 1.22156e-07 
202 1 0.285735 0.214349 0.333373 55.845 3.22794e-07 
203 1 0.321394 0.214311 0.291345 55.845 4.08371e-08 
212 1 0.285723 0.142813 0.333272 55.845 3.25239e-07 
213 1 0.321486 0.142846 0.29148 55.845 -4.34561e-08 
214 1 0.321407 0.178515 0.33314 55.845 2.63802e-07 
215 1 0.357141 0.178585 0.291257 55.845 -3.62429e-08 