ITEM: TIMESTEP
5500
ITEM: NUMBER OF ATOMS
5880
ITEM: BOX BOUNDS pp pp ff
-28.0133 28.0133
-28.0133 28.0133
0 34.092
ITEM: ATOMS id type xs ys zs mass q 
259 1 -8.12432e-06 0.107155 0.207619 55.845 1.61442e-07 
267 1 1.00121e-05 0.0357466 0.207645 55.845 2.3335e-07 
269 1 0.0356893 0.0714177 0.207832 55.845 8.84795e-08 
271 1 0.0714232 0.107102 0.207859 55.845 -9.92105e-10 
279 1 0.0356661 3.83048e-05 0.207742 55.845 1.29326e-07 
281 1 0.0714115 0.0357237 0.20777 55.845 1.13781e-07 
283 1 0.107188 0.0715141 0.207624 55.845 3.29851e-08 
293 1 0.107124 -6.39743e-06 0.207778 55.845 2.27476e-07 
361 1 -1.34131e-05 0.107068 0.12392 55.845 -4.74146e-07 
369 1 -3.17934e-05 0.0357629 0.123885 55.845 -4.01065e-07 
370 1 -1.52521e-05 0.0715153 0.165943 55.845 -2.12757e-08 
371 1 0.0356981 0.0714227 0.123916 55.845 -4.02222e-07 
372 1 0.0357622 0.107134 0.165986 55.845 6.15847e-08 
373 1 0.0713341 0.107162 0.12383 55.845 -2.41569e-07 
380 1 7.70167e-06 -3.61815e-05 0.165927 55.845 -7.76308e-09 
381 1 0.0357793 1.02941e-05 0.123868 55.845 -3.36466e-07 
382 1 0.0356905 0.035747 0.166094 55.845 4.00294e-08 
383 1 0.0714891 0.0357581 0.123922 55.845 -3.43772e-07 
384 1 0.0713591 0.0714665 0.166034 55.845 4.59489e-08 
385 1 0.107122 0.0714403 0.124021 55.845 -1.759e-07 
386 1 0.10715 0.107179 0.166016 55.845 -8.16182e-08 
394 1 0.0714426 7.12354e-05 0.165956 55.845 1.11041e-07 
395 1 0.107125 8.78116e-06 0.123928 55.845 -4.31917e-07 
396 1 0.107224 0.035808 0.166036 55.845 -3.99822e-08 
463 1 0 0.107143 0.0416667 55.845 -1.48311e-07 
471 1 0 0.0357143 0.0416667 55.845 -1.2551e-08 
472 1 -5.72392e-05 0.071466 0.082394 55.845 -1.98767e-07 
473 1 0.0357143 0.0714286 0.0416667 55.845 9.75735e-08 
474 1 0.0356992 0.107207 0.082305 55.845 -7.38469e-08 
475 1 0.0714286 0.107143 0.0416667 55.845 3.754e-07 
482 1 -1.84133e-05 -4.6746e-06 0.0825249 55.845 1.20691e-07 
483 1 0.0357143 0 0.0416667 55.845 2.23834e-07 
484 1 0.0357193 0.0357093 0.0824527 55.845 -6.93995e-08 
485 1 0.0714286 0.0357143 0.0416667 55.845 2.21279e-07 
486 1 0.071431 0.0714567 0.0823092 55.845 -7.56123e-08 
487 1 0.107143 0.0714286 0.0416667 55.845 4.44154e-07 
488 1 0.107151 0.107184 0.0823852 55.845 -1.16407e-07 
496 1 0.0714095 5.40451e-06 0.082339 55.845 -8.31869e-08 
497 1 0.107143 0 0.0416667 55.845 -2.67898e-08 
498 1 0.10715 0.0357327 0.0823687 55.845 -2.46406e-08 
567 1 0 0.0714286 0 55.845 -2.35225e-07 
568 1 0.0357143 0.107143 0 55.845 -3.38284e-08 
572 1 0 0 0 55.845 1.17551e-07 
573 1 0.0357143 0.0357143 0 55.845 -7.81961e-08 
574 1 0.0714286 0.0714286 0 55.845 2.00082e-08 
575 1 0.107143 0.107143 0 55.845 8.19129e-09 
579 1 0.0714286 0 0 55.845 -9.35682e-08 
580 1 0.107143 0.0357143 0 55.845 -1.03847e-08 
285 1 0.142841 0.107123 0.207745 55.845 2.74719e-07 
295 1 0.142959 0.035811 0.207887 55.845 2.20393e-07 
297 1 0.178553 0.0715353 0.207845 55.845 2.77881e-07 
299 1 0.214285 0.10711 0.207935 55.845 2.63314e-07 
307 1 0.178558 3.74746e-05 0.207757 55.845 2.7174e-07 
309 1 0.21421 0.0357661 0.207775 55.845 2.53357e-07 
311 1 0.249965 0.0714457 0.207797 55.845 1.0143e-07 
387 1 0.142776 0.107066 0.123853 55.845 -2.69676e-07 
397 1 0.14284 0.0356258 0.123964 55.845 -2.6368e-07 
398 1 0.1429 0.0714067 0.165903 55.845 -1.10085e-07 
399 1 0.178565 0.0714198 0.123935 55.845 -2.99792e-07 
400 1 0.178553 0.107176 0.165761 55.845 -3.7396e-08 
401 1 0.214271 0.107095 0.124019 55.845 -4.44696e-07 
408 1 0.142855 3.62898e-05 0.165901 55.845 -7.66282e-08 
409 1 0.178512 -3.79705e-05 0.12388 55.845 -2.89554e-07 
410 1 0.17862 0.0357752 0.16602 55.845 -8.65455e-08 
411 1 0.214275 0.0356793 0.123833 55.845 -3.43361e-07 
412 1 0.214303 0.0714018 0.165889 55.845 9.15004e-08 
413 1 0.249988 0.0714465 0.123909 55.845 -4.46716e-07 
414 1 0.249996 0.107174 0.166002 55.845 1.7938e-07 
424 1 0.214155 -4.81332e-05 0.165948 55.845 -6.08994e-08 
426 1 0.249947 0.035762 0.166012 55.845 6.98236e-08 
489 1 0.142857 0.107143 0.0416667 55.845 1.83087e-07 
499 1 0.142857 0.0357143 0.0416667 55.845 2.33336e-07 
500 1 0.142757 0.0713446 0.0823445 55.845 9.47531e-09 
501 1 0.178571 0.0714286 0.0416667 55.845 1.71858e-07 
502 1 0.178555 0.10728 0.0823884 55.845 -2.66737e-08 
503 1 0.214286 0.107143 0.0416667 55.845 2.31942e-08 
510 1 0.142793 -1.33458e-05 0.0823027 55.845 -4.32013e-08 
511 1 0.178571 0 0.0416667 55.845 1.2715e-07 
512 1 0.178537 0.0357173 0.0823555 55.845 2.20063e-08 
513 1 0.214286 0.0357143 0.0416667 55.845 1.38494e-07 
514 1 0.214291 0.0714682 0.0823567 55.845 -1.87476e-08 
515 1 0.25 0.0714286 0.0416667 55.845 9.395e-08 
516 1 0.250024 0.107146 0.0823584 55.845 1.59929e-07 
526 1 0.214318 -0.000101566 0.0822783 55.845 5.98728e-08 
528 1 0.250005 0.0357168 0.0823101 55.845 -6.5521e-08 
581 1 0.142857 0.0714286 0 55.845 6.04913e-08 
582 1 0.178571 0.107143 0 55.845 -6.05476e-08 
586 1 0.142857 0 0 55.845 -7.04237e-08 
587 1 0.178571 0.0357143 0 55.845 1.60414e-08 
588 1 0.214286 0.0714286 0 55.845 -8.12395e-08 
589 1 0.25 0.107143 0 55.845 1.24997e-08 
594 1 0.214286 0 0 55.845 7.92399e-08 
595 1 0.25 0.0357143 0 55.845 -7.15555e-08 
313 1 0.285708 0.107182 0.207861 55.845 -4.56364e-08 
323 1 0.249922 3.55764e-05 0.207722 55.845 1.49531e-07 
325 1 0.285624 0.0357528 0.207543 55.845 7.48658e-08 
327 1 0.321446 0.0715686 0.207846 55.845 3.34635e-08 
329 1 0.357106 0.1072 0.207674 55.845 1.82803e-07 
337 1 0.321411 4.15556e-05 0.20776 55.845 1.64008e-07 
339 1 0.357135 0.035677 0.207782 55.845 1.37098e-07 
415 1 0.285765 0.10712 0.123885 55.845 -4.42687e-07 
425 1 0.249894 1.98419e-05 0.123872 55.845 -2.47204e-07 
427 1 0.285732 0.0357415 0.123907 55.845 -4.00497e-07 
428 1 0.285738 0.071509 0.165933 55.845 2.03656e-07 
429 1 0.321548 0.0713354 0.123984 55.845 -4.16252e-07 
430 1 0.321464 0.107145 0.165997 55.845 1.55041e-07 
431 1 0.357236 0.107092 0.123741 55.845 -4.27525e-07 
439 1 0.321433 -3.65061e-06 0.123849 55.845 -3.06322e-07 
440 1 0.321447 0.0357521 0.166017 55.845 1.16548e-07 
441 1 0.357137 0.0356417 0.123955 55.845 -3.05556e-07 
442 1 0.357104 0.0713984 0.165918 55.845 1.47265e-07 
517 1 0.285714 0.107143 0.0416667 55.845 1.73393e-07 
527 1 0.25 0 0.0416667 55.845 2.08806e-07 
529 1 0.285714 0.0357143 0.0416667 55.845 1.2287e-07 
530 1 0.285785 0.0713593 0.0823394 55.845 -4.81079e-08 
531 1 0.321429 0.0714286 0.0416667 55.845 1.50252e-07 
532 1 0.321433 0.107085 0.08233 55.845 9.86738e-08 
533 1 0.357143 0.107143 0.0416667 55.845 3.34703e-08 
603 1 0.357143 0.0714286 0 55.845 3.42182e-08 
541 1 0.321429 0 0.0416667 55.845 1.07256e-07 
542 1 0.321418 0.0357096 0.0823946 55.845 -7.98457e-08 
543 1 0.357143 0.0357143 0.0416667 55.845 2.04105e-07 
544 1 0.357205 0.0713561 0.0823257 55.845 5.29545e-08 
602 1 0.321429 0.0357143 0 55.845 -8.95466e-08 
596 1 0.285714 0.0714286 0 55.845 -9.39476e-08 
597 1 0.321429 0.107143 0 55.845 2.88345e-08 
612 1 0.464286 0.0357143 0 55.845 -6.70327e-08 
611 1 0.428571 0 0 55.845 -7.36755e-08 
610 1 0.464286 0.107143 0 55.845 -2.95556e-09 
609 1 0.428571 0.0714286 0 55.845 4.18389e-08 
608 1 0.392857 0.0357143 0 55.845 9.28927e-09 
341 1 0.392883 0.0714237 0.207804 55.845 7.95993e-08 
343 1 0.428551 0.107136 0.207749 55.845 8.30471e-08 
348 1 0.392872 -5.52872e-05 0.20761 55.845 2.16272e-07 
350 1 0.428507 0.035696 0.207648 55.845 1.95115e-08 
352 1 0.464337 0.0713722 0.207711 55.845 -3.13696e-08 
355 1 0.464361 1.91003e-05 0.207756 55.845 1.09289e-07 
443 1 0.392877 0.0713027 0.124015 55.845 -3.32907e-07 
444 1 0.392905 0.107071 0.165956 55.845 9.78982e-08 
445 1 0.428673 0.107184 0.123944 55.845 -3.77052e-07 
604 1 0.392857 0.107143 0 55.845 5.4563e-09 
450 1 0.392857 8.03875e-05 0.123909 55.845 -3.48906e-07 
451 1 0.392787 0.0357152 0.166037 55.845 8.90343e-08 
452 1 0.428602 0.0356969 0.123741 55.845 -3.94657e-07 
453 1 0.428665 0.0714425 0.16599 55.845 1.93427e-07 
454 1 0.464379 0.0714232 0.124052 55.845 -4.47198e-07 
455 1 0.4643 0.107144 0.166083 55.845 1.97678e-07 
456 1 0.428598 7.82445e-08 0.165788 55.845 8.89212e-08 
457 1 0.464267 7.40856e-06 0.123879 55.845 -4.37011e-07 
458 1 0.464273 0.0356114 0.165894 55.845 1.92229e-07 
545 1 0.392857 0.0714286 0.0416667 55.845 2.33935e-07 
546 1 0.392909 0.107042 0.0823811 55.845 9.17671e-08 
547 1 0.428571 0.107143 0.0416667 55.845 9.84704e-08 
552 1 0.392857 0 0.0416667 55.845 7.45668e-08 
553 1 0.392884 0.0357697 0.0823878 55.845 8.49195e-08 
554 1 0.428571 0.0357143 0.0416667 55.845 2.00042e-07 
555 1 0.428649 0.0714792 0.0823803 55.845 1.12182e-07 
556 1 0.464286 0.0714286 0.0416667 55.845 1.54315e-07 
557 1 0.464316 0.107088 0.082455 55.845 6.71432e-08 
558 1 0.428578 -1.22414e-05 0.082216 55.845 -1.72436e-08 
559 1 0.464286 0 0.0416667 55.845 1.24769e-07 
560 1 0.464281 0.0356484 0.0823388 55.845 1.6402e-10 
255 1 -1.69567e-05 0.178515 0.207779 55.845 2.42753e-08 
257 1 0.0356006 0.214281 0.207843 55.845 1.92385e-07 
261 1 0.0357096 0.142892 0.207823 55.845 9.30022e-09 
263 1 0.0713998 0.178589 0.20759 55.845 1.41727e-07 
265 1 0.107141 0.214274 0.20781 55.845 3.03518e-07 
273 1 0.107084 0.142823 0.207822 55.845 2.12221e-07 
357 1 -3.23069e-05 0.178561 0.123777 55.845 -3.30343e-07 
358 1 -4.295e-05 0.214221 0.166007 55.845 -1.34188e-08 
359 1 0.0356895 0.214354 0.123931 55.845 -4.42627e-07 
360 1 0.0357473 0.250113 0.165982 55.845 -2.83737e-08 
362 1 -1.55949e-06 0.142846 0.165836 55.845 7.20252e-08 
363 1 0.0356739 0.142818 0.123913 55.845 -3.05554e-07 
364 1 0.0356365 0.178648 0.165941 55.845 7.41643e-08 
365 1 0.0713705 0.178547 0.124072 55.845 -3.40304e-07 
366 1 0.0714031 0.214266 0.165839 55.845 -3.23887e-08 
367 1 0.107197 0.214392 0.123787 55.845 -3.12572e-07 
368 1 0.10709 0.25013 0.165858 55.845 -8.85514e-08 
374 1 0.0713796 0.14284 0.165936 55.845 7.57307e-09 
375 1 0.10714 0.142901 0.12408 55.845 -2.53666e-07 
376 1 0.10718 0.178599 0.165884 55.845 -9.20718e-08 
459 1 0 0.178571 0.0416667 55.845 1.29602e-07 
460 1 6.2498e-06 0.214313 0.0824305 55.845 1.80601e-07 
461 1 0.0357143 0.214286 0.0416667 55.845 -3.14228e-08 
462 1 0.0355758 0.249968 0.0823183 55.845 -1.65719e-07 
464 1 -5.54217e-05 0.142755 0.0822984 55.845 1.63662e-07 
465 1 0.0357143 0.142857 0.0416667 55.845 1.9127e-07 
466 1 0.0356516 0.178578 0.0823189 55.845 7.25429e-08 
467 1 0.0714286 0.178571 0.0416667 55.845 8.80578e-08 
468 1 0.0714321 0.214334 0.0825436 55.845 -1.50314e-07 
469 1 0.107143 0.214286 0.0416667 55.845 4.92962e-08 
470 1 0.107166 0.250081 0.0823974 55.845 5.3607e-08 
476 1 0.0714466 0.142849 0.0822236 55.845 -1.06745e-07 
477 1 0.107143 0.142857 0.0416667 55.845 1.43421e-07 
478 1 0.107131 0.178564 0.0823535 55.845 -2.59756e-07 
561 1 0 0.214286 0 55.845 8.25672e-08 
562 1 0.0357143 0.25 0 55.845 -1.76257e-07 
563 1 0 0.142857 0 55.845 9.82577e-08 
564 1 0.0357143 0.178571 0 55.845 3.35037e-08 
565 1 0.0714286 0.214286 0 55.845 -1.79476e-07 
566 1 0.107143 0.25 0 55.845 7.24518e-08 
569 1 0.0714286 0.142857 0 55.845 -2.44471e-08 
570 1 0.107143 0.178571 0 55.845 -1.95392e-07 
275 1 0.14289 0.178575 0.207832 55.845 3.46528e-07 
277 1 0.178612 0.214413 0.207674 55.845 2.41366e-07 
287 1 0.178524 0.142875 0.207831 55.845 3.60384e-07 
289 1 0.214246 0.178611 0.207643 55.845 1.24808e-07 
291 1 0.249939 0.214267 0.207693 55.845 7.41362e-08 
301 1 0.249983 0.142918 0.207736 55.845 -1.97249e-08 
377 1 0.142829 0.178632 0.123859 55.845 -3.13085e-07 
378 1 0.142818 0.214273 0.165887 55.845 -1.17561e-07 
379 1 0.178605 0.214279 0.123973 55.845 -2.52944e-07 
388 1 0.142867 0.142806 0.16587 55.845 -1.36938e-07 
389 1 0.178529 0.142961 0.123958 55.845 -4.09818e-07 
390 1 0.178544 0.178574 0.166059 55.845 -7.73792e-08 
391 1 0.214247 0.178513 0.123846 55.845 -3.69801e-07 
392 1 0.214271 0.214315 0.165913 55.845 -6.91607e-09 
393 1 0.250003 0.214306 0.123809 55.845 -3.60789e-07 
402 1 0.214205 0.142804 0.166051 55.845 6.04108e-08 
403 1 0.24997 0.142946 0.123958 55.845 -4.25269e-07 
404 1 0.24999 0.178599 0.165903 55.845 1.19468e-07 
479 1 0.142857 0.178571 0.0416667 55.845 -1.3165e-08 
480 1 0.142851 0.214352 0.0823796 55.845 1.18197e-08 
481 1 0.178571 0.214286 0.0416667 55.845 1.50704e-07 
490 1 0.142909 0.14291 0.0823559 55.845 -2.14262e-07 
491 1 0.178571 0.142857 0.0416667 55.845 -6.07976e-08 
492 1 0.178597 0.178558 0.0823445 55.845 -1.36414e-08 
493 1 0.214286 0.178571 0.0416667 55.845 1.34975e-07 
494 1 0.214249 0.214355 0.0822673 55.845 -7.38357e-09 
495 1 0.25 0.214286 0.0416667 55.845 1.34342e-07 
504 1 0.214231 0.142827 0.0824364 55.845 1.22507e-07 
505 1 0.25 0.142857 0.0416667 55.845 2.06278e-07 
506 1 0.24998 0.178544 0.0823244 55.845 1.3131e-07 
571 1 0.142857 0.214286 0 55.845 2.7819e-08 
576 1 0.142857 0.142857 0 55.845 -1.5998e-07 
577 1 0.178571 0.178571 0 55.845 -2.00224e-08 
578 1 0.214286 0.214286 0 55.845 2.30249e-08 
583 1 0.214286 0.142857 0 55.845 4.91457e-08 
584 1 0.25 0.178571 0 55.845 1.00655e-07 
303 1 0.285722 0.178607 0.20769 55.845 -9.39417e-08 
305 1 0.321412 0.214366 0.207673 55.845 7.70815e-08 
315 1 0.321484 0.142888 0.207724 55.845 4.95993e-08 
317 1 0.357167 0.178552 0.207898 55.845 2.03797e-07 
405 1 0.285764 0.178568 0.123852 55.845 -3.83488e-07 
406 1 0.285744 0.214303 0.165958 55.845 1.24454e-07 
407 1 0.321459 0.21426 0.123805 55.845 -3.02629e-07 
416 1 0.285695 0.142851 0.165849 55.845 1.73137e-07 
417 1 0.321493 0.142856 0.123861 55.845 -4.43718e-07 
418 1 0.321374 0.17863 0.166099 55.845 8.2759e-08 
419 1 0.357094 0.178571 0.123995 55.845 -4.00242e-07 
420 1 0.357165 0.214199 0.166101 55.845 1.4518e-08 
432 1 0.357197 0.142771 0.166031 55.845 6.03266e-08 
507 1 0.285714 0.178571 0.0416667 55.845 2.60362e-07 
508 1 0.285672 0.214278 0.0823014 55.845 -1.24281e-07 
509 1 0.321429 0.214286 0.0416667 55.845 2.22695e-07 
518 1 0.285744 0.142899 0.0822722 55.845 2.24795e-07 
519 1 0.321429 0.142857 0.0416667 55.845 1.08256e-07 
520 1 0.32141 0.178504 0.0823965 55.845 6.14488e-08 
521 1 0.357143 0.178571 0.0416667 55.845 1.34341e-08 
522 1 0.357147 0.214274 0.0823475 55.845 4.07479e-08 
534 1 0.357196 0.142906 0.0824766 55.845 1.87744e-08 
585 1 0.285714 0.214286 0 55.845 -9.92794e-08 
590 1 0.285714 0.142857 0 55.845 1.55887e-07 
591 1 0.321429 0.178571 0 55.845 2.64951e-08 
592 1 0.357143 0.214286 0 55.845 6.71188e-08 
598 1 0.357143 0.142857 0 55.845 -4.13562e-08 
319 1 0.392866 0.214299 0.207785 55.845 1.63347e-07 
321 1 0.428554 0.249962 0.207677 55.845 1.4687e-07 
331 1 0.39281 0.142983 0.20774 55.845 3.10645e-07 
333 1 0.428505 0.17856 0.207725 55.845 1.86919e-07 
335 1 0.46428 0.214267 0.207747 55.845 1.11924e-07 
345 1 0.464301 0.142882 0.207793 55.845 6.57717e-08 
606 1 0.464286 0.178571 0 55.845 -3.56673e-08 
421 1 0.392812 0.214263 0.123943 55.845 -2.97289e-07 
422 1 0.39282 0.249952 0.16599 55.845 -3.82829e-08 
423 1 0.428482 0.249974 0.123901 55.845 -2.93729e-07 
433 1 0.392868 0.142818 0.12381 55.845 -4.6543e-07 
434 1 0.392876 0.178599 0.165896 55.845 -3.30139e-08 
435 1 0.42865 0.178509 0.123966 55.845 -4.22607e-07 
436 1 0.428544 0.214329 0.166084 55.845 2.19324e-08 
437 1 0.464265 0.214353 0.124014 55.845 -3.87094e-07 
605 1 0.428571 0.142857 0 55.845 -5.62615e-08 
446 1 0.4285 0.142828 0.16588 55.845 9.37875e-08 
447 1 0.4643 0.142912 0.124084 55.845 -3.53669e-07 
448 1 0.464293 0.178627 0.166002 55.845 1.01812e-07 
523 1 0.392857 0.214286 0.0416667 55.845 1.68298e-07 
524 1 0.392882 0.25001 0.0822546 55.845 1.52992e-07 
525 1 0.428571 0.25 0.0416667 55.845 2.05707e-07 
535 1 0.392857 0.142857 0.0416667 55.845 -1.4411e-07 
536 1 0.392845 0.178547 0.0823731 55.845 -6.31154e-08 
537 1 0.428571 0.178571 0.0416667 55.845 -2.24174e-08 
538 1 0.428561 0.214254 0.0824571 55.845 -1.08747e-07 
539 1 0.464286 0.214286 0.0416667 55.845 1.05801e-07 
548 1 0.428597 0.142744 0.0822373 55.845 6.43066e-09 
549 1 0.464286 0.142857 0.0416667 55.845 1.67665e-07 
550 1 0.46425 0.178526 0.0824376 55.845 -3.02277e-09 
593 1 0.392857 0.25 0 55.845 1.60818e-07 
599 1 0.392857 0.178571 0 55.845 -1.32777e-07 
600 1 0.428571 0.214286 0 55.845 -9.47364e-08 
3 1 2.966e-05 0.107055 0.457802 55.845 -6.02676e-07 
7 1 8.45566e-05 0.0357627 0.458009 55.845 -6.35554e-07 
8 1 0.0357805 0.0713112 0.45803 55.845 -7.21203e-07 
9 1 0.0713727 0.107129 0.457925 55.845 -6.24452e-07 
13 1 0.0356195 -1.95791e-05 0.457987 55.845 -5.54517e-07 
14 1 0.0713856 0.0357312 0.457965 55.845 -6.30282e-07 
15 1 0.107075 0.0714006 0.457693 55.845 -5.60078e-07 
20 1 0.107164 4.14527e-05 0.457727 55.845 -5.89844e-07 
55 1 2.65123e-05 0.107125 0.374359 55.845 -1.31266e-07 
63 1 6.95058e-06 0.0357065 0.374387 55.845 -4.31523e-08 
64 1 3.71308e-05 0.0713698 0.416192 55.845 2.0125e-07 
65 1 0.0356958 0.0714433 0.374446 55.845 -4.4823e-08 
66 1 0.0356745 0.107088 0.416314 55.845 2.45822e-07 
67 1 0.0714816 0.107196 0.374454 55.845 -3.80235e-08 
74 1 9.37741e-07 8.37241e-05 0.416313 55.845 2.24088e-07 
75 1 0.0357837 -4.42046e-05 0.374472 55.845 8.02354e-09 
76 1 0.0356999 0.035777 0.41627 55.845 2.49593e-07 
77 1 0.0714069 0.0357237 0.374273 55.845 2.20769e-08 
78 1 0.0714836 0.0715048 0.416308 55.845 2.69365e-07 
79 1 0.107152 0.0713434 0.374241 55.845 -3.26352e-08 
80 1 0.107161 0.107154 0.416294 55.845 1.66723e-07 
88 1 0.0714205 6.83524e-05 0.41623 55.845 2.03574e-07 
89 1 0.107118 4.83136e-05 0.374364 55.845 1.59424e-08 
90 1 0.107127 0.035681 0.416364 55.845 1.96078e-07 
157 1 -1.66311e-05 0.107037 0.290377 55.845 -1.09423e-07 
165 1 4.18246e-06 0.0357403 0.290343 55.845 -5.46832e-08 
166 1 1.79339e-05 0.0713984 0.332289 55.845 3.10488e-07 
167 1 0.0357111 0.0714857 0.290486 55.845 -1.35257e-07 
168 1 0.0357432 0.107171 0.332576 55.845 1.09179e-07 
169 1 0.071475 0.107197 0.290478 55.845 -3.24787e-07 
176 1 -2.65054e-05 -7.27462e-06 0.332321 55.845 9.25318e-09 
177 1 0.0357239 -3.0709e-05 0.290478 55.845 -2.08304e-07 
178 1 0.0357345 0.0357294 0.332469 55.845 1.65894e-07 
179 1 0.0714274 0.0356852 0.290511 55.845 -2.0052e-07 
180 1 0.0714018 0.0714428 0.332474 55.845 -1.26078e-08 
181 1 0.10721 0.0714677 0.290582 55.845 -3.33001e-07 
182 1 0.107152 0.107141 0.332345 55.845 -8.81723e-08 
190 1 0.0714487 1.72239e-05 0.332378 55.845 1.41324e-07 
191 1 0.107151 1.74244e-06 0.290438 55.845 -2.2133e-08 
192 1 0.107163 0.0356726 0.332453 55.845 -1.66982e-08 
268 1 7.32017e-05 0.0714275 0.249296 55.845 1.76302e-07 
270 1 0.0357265 0.10713 0.249344 55.845 7.57793e-08 
278 1 3.96405e-06 -3.80036e-05 0.249261 55.845 -1.38829e-07 
280 1 0.0357095 0.0356992 0.249388 55.845 1.28459e-07 
282 1 0.0715071 0.0713883 0.249361 55.845 -1.52141e-08 
284 1 0.107237 0.107145 0.249275 55.845 -1.04303e-07 
292 1 0.0714418 4.88596e-05 0.249224 55.845 1.67236e-07 
294 1 0.107163 0.0357955 0.249325 55.845 -5.11459e-08 
16 1 0.142878 0.107173 0.45783 55.845 -5.2178e-07 
21 1 0.142864 0.0358176 0.45782 55.845 -4.6847e-07 
22 1 0.178597 0.071445 0.457858 55.845 -4.11898e-07 
23 1 0.214198 0.107203 0.457946 55.845 -3.76077e-07 
27 1 0.178533 1.41235e-05 0.457846 55.845 -3.86321e-07 
28 1 0.214232 0.0357575 0.457797 55.845 -3.85585e-07 
29 1 0.249922 0.0713744 0.457756 55.845 -4.27489e-07 
81 1 0.142886 0.107246 0.374287 55.845 1.08564e-07 
91 1 0.142792 0.035729 0.374392 55.845 5.34453e-08 
92 1 0.142829 0.0714982 0.41623 55.845 8.14451e-08 
93 1 0.178615 0.0714519 0.374445 55.845 1.65252e-07 
94 1 0.178561 0.107229 0.416396 55.845 3.47717e-08 
95 1 0.214208 0.107161 0.374398 55.845 2.35063e-07 
102 1 0.142833 -6.90334e-06 0.41622 55.845 1.00356e-07 
103 1 0.178569 3.98778e-05 0.374462 55.845 9.48089e-08 
104 1 0.178526 0.0357555 0.416225 55.845 9.00485e-08 
105 1 0.214222 0.0357165 0.37439 55.845 2.36952e-07 
106 1 0.214237 0.0714834 0.416299 55.845 4.54241e-08 
107 1 0.249953 0.0713499 0.374429 55.845 2.22162e-07 
108 1 0.250005 0.107149 0.416324 55.845 6.60833e-08 
118 1 0.214298 8.44293e-05 0.416454 55.845 1.13825e-07 
120 1 0.24998 0.035674 0.416288 55.845 7.09574e-08 
183 1 0.142896 0.107097 0.290431 55.845 -7.53119e-08 
193 1 0.142817 0.0356384 0.290558 55.845 -1.62076e-07 
194 1 0.142885 0.0714489 0.332381 55.845 -1.54878e-07 
195 1 0.17861 0.0714348 0.290535 55.845 -6.80782e-10 
196 1 0.178576 0.107208 0.332475 55.845 -2.30057e-08 
197 1 0.214311 0.107219 0.290561 55.845 2.93442e-08 
204 1 0.142842 2.32975e-06 0.332547 55.845 5.69922e-08 
205 1 0.178575 -3.17351e-05 0.290493 55.845 -9.1762e-09 
206 1 0.178508 0.0356546 0.332379 55.845 -1.21273e-07 
207 1 0.21419 0.0356353 0.290551 55.845 2.24163e-10 
208 1 0.214256 0.0714525 0.332415 55.845 -1.21751e-08 
209 1 0.25012 0.0713848 0.290523 55.845 4.85995e-10 
210 1 0.249909 0.107128 0.332553 55.845 -5.3687e-09 
220 1 0.21427 -6.8958e-05 0.332607 55.845 -1.14055e-07 
222 1 0.249992 0.0357308 0.332372 55.845 1.64719e-08 
296 1 0.142819 0.0714205 0.249302 55.845 -2.39194e-07 
298 1 0.178553 0.107189 0.249342 55.845 -6.02538e-08 
306 1 0.142837 -6.91179e-06 0.249373 55.845 -3.81975e-08 
308 1 0.178516 0.0358162 0.249465 55.845 -1.57432e-07 
310 1 0.214354 0.0714121 0.249534 55.845 4.53742e-08 
312 1 0.249949 0.107235 0.249415 55.845 9.63252e-08 
322 1 0.214304 5.42861e-05 0.249392 55.845 -2.07903e-07 
324 1 0.249939 0.0357141 0.249308 55.845 1.2048e-07 
30 1 0.285686 0.107142 0.457714 55.845 -4.40875e-07 
35 1 0.249955 3.88493e-05 0.457938 55.845 -4.22136e-07 
36 1 0.285627 0.035688 0.458129 55.845 -5.34134e-07 
37 1 0.321402 0.0714407 0.457831 55.845 -5.30701e-07 
38 1 0.35714 0.107151 0.457963 55.845 -5.55453e-07 
42 1 0.321489 3.78404e-05 0.457926 55.845 -5.21244e-07 
43 1 0.357108 0.0356844 0.457931 55.845 -4.6205e-07 
109 1 0.285695 0.107131 0.374438 55.845 7.01096e-08 
119 1 0.249958 -2.00482e-05 0.37451 55.845 6.7906e-08 
121 1 0.285657 0.0356467 0.37459 55.845 1.35434e-07 
122 1 0.285654 0.0714717 0.416363 55.845 1.19745e-07 
123 1 0.32138 0.0714602 0.374679 55.845 4.44227e-08 
124 1 0.321441 0.107298 0.41647 55.845 2.08057e-07 
125 1 0.357113 0.107198 0.374526 55.845 -3.50342e-08 
133 1 0.321443 3.12276e-05 0.37457 55.845 6.38524e-08 
134 1 0.321348 0.0356688 0.416444 55.845 1.64653e-07 
135 1 0.357156 0.0358389 0.3745 55.845 5.80111e-08 
136 1 0.357152 0.0714458 0.416328 55.845 2.62666e-07 
211 1 0.285728 0.107112 0.290548 55.845 -2.59185e-07 
221 1 0.249981 8.66857e-05 0.290574 55.845 -9.55605e-08 
223 1 0.285691 0.0357242 0.290503 55.845 -8.75845e-08 
224 1 0.285688 0.0713626 0.332627 55.845 1.55254e-07 
225 1 0.321376 0.0714116 0.29055 55.845 -1.82049e-07 
226 1 0.321423 0.107136 0.332593 55.845 1.54331e-07 
227 1 0.357112 0.107165 0.290605 55.845 -1.98181e-07 
235 1 0.321392 7.12843e-05 0.290596 55.845 -7.68036e-08 
236 1 0.321397 0.0357217 0.33247 55.845 1.07925e-07 
237 1 0.35717 0.035624 0.290489 55.845 -1.58165e-07 
238 1 0.357097 0.0714709 0.332462 55.845 1.6796e-07 
326 1 0.28574 0.0714582 0.24925 55.845 2.7043e-07 
328 1 0.321438 0.107206 0.249381 55.845 1.29181e-07 
338 1 0.321343 0.0357667 0.249251 55.845 1.74852e-07 
340 1 0.357089 0.0714617 0.249272 55.845 1.41147e-07 
44 1 0.392808 0.0714105 0.45774 55.845 -4.33529e-07 
45 1 0.428507 0.10712 0.457886 55.845 -4.89725e-07 
47 1 0.392899 5.75956e-05 0.457922 55.845 -3.29183e-07 
48 1 0.428573 0.0356953 0.457844 55.845 -2.86576e-07 
49 1 0.46423 0.0714407 0.457754 55.845 -4.25192e-07 
50 1 0.464303 -0.000100132 0.457788 55.845 -2.16608e-07 
137 1 0.39275 0.0715742 0.374351 55.845 -4.22351e-08 
138 1 0.392885 0.107148 0.416312 55.845 2.81589e-07 
139 1 0.428526 0.107159 0.374356 55.845 -5.08258e-08 
144 1 0.392948 2.32145e-05 0.374482 55.845 2.53618e-07 
145 1 0.392869 0.0356815 0.416291 55.845 1.14674e-07 
146 1 0.428511 0.035658 0.37444 55.845 1.80643e-07 
147 1 0.42849 0.0714159 0.416246 55.845 1.12666e-07 
148 1 0.464257 0.0713995 0.374333 55.845 1.9118e-07 
149 1 0.464255 0.107209 0.416199 55.845 6.93576e-08 
150 1 0.428577 2.07864e-05 0.416286 55.845 -7.99067e-08 
151 1 0.464243 -6.0965e-05 0.374494 55.845 4.79312e-07 
152 1 0.464197 0.0356677 0.416301 55.845 -1.29108e-07 
239 1 0.392842 0.0714287 0.29054 55.845 -2.58825e-07 
240 1 0.392863 0.107143 0.332338 55.845 2.50648e-07 
241 1 0.428655 0.107101 0.290497 55.845 -2.23118e-07 
246 1 0.392878 -3.94396e-05 0.290474 55.845 6.19576e-08 
247 1 0.392868 0.0357529 0.332388 55.845 2.92751e-08 
248 1 0.428543 0.0355775 0.290429 55.845 -1.45307e-07 
249 1 0.428525 0.071368 0.332422 55.845 -2.2038e-08 
250 1 0.464272 0.0712907 0.290538 55.845 -1.69932e-07 
251 1 0.464303 0.107106 0.332454 55.845 -4.76389e-09 
252 1 0.428592 -2.11034e-05 0.332526 55.845 -7.58026e-08 
253 1 0.464234 1.46566e-05 0.290344 55.845 8.00947e-08 
254 1 0.464273 0.0356261 0.332506 55.845 -1.23077e-07 
342 1 0.39285 0.107193 0.249347 55.845 1.19347e-07 
349 1 0.39284 0.0356547 0.249274 55.845 1.15842e-07 
351 1 0.428557 0.0713572 0.249435 55.845 7.07635e-08 
353 1 0.464315 0.107076 0.249338 55.845 6.20645e-08 
354 1 0.428552 -1.32137e-05 0.249145 55.845 9.38032e-08 
356 1 0.464253 0.0357264 0.249219 55.845 1.33728e-07 
1 1 1.55627e-05 0.178607 0.457831 55.845 -4.00947e-07 
2 1 0.0357532 0.214351 0.45781 55.845 -4.63218e-07 
4 1 0.0356798 0.142827 0.457869 55.845 -5.46452e-07 
5 1 0.071413 0.178579 0.457881 55.845 -5.25014e-07 
6 1 0.10709 0.214377 0.457743 55.845 -3.32267e-07 
10 1 0.107088 0.14295 0.457818 55.845 -5.56968e-07 
51 1 -2.302e-05 0.178635 0.37455 55.845 -2.37257e-07 
52 1 1.67354e-05 0.214344 0.416276 55.845 1.32388e-07 
53 1 0.0357468 0.214295 0.374475 55.845 5.64046e-08 
54 1 0.0357523 0.250038 0.416174 55.845 -6.54499e-08 
56 1 8.04314e-06 0.142876 0.416338 55.845 1.80676e-07 
57 1 0.0356874 0.14281 0.374509 55.845 -1.35206e-07 
58 1 0.0357625 0.178585 0.41641 55.845 1.68815e-07 
59 1 0.0714386 0.17854 0.374384 55.845 8.85636e-08 
60 1 0.0713636 0.21421 0.416267 55.845 -2.46714e-08 
61 1 0.107078 0.214249 0.374516 55.845 2.10471e-07 
62 1 0.107171 0.250022 0.416358 55.845 -1.57486e-07 
68 1 0.0714385 0.142821 0.416347 55.845 1.60116e-07 
69 1 0.107037 0.142837 0.374368 55.845 1.2818e-07 
70 1 0.107028 0.178528 0.416196 55.845 4.98184e-08 
153 1 -4.86154e-05 0.178508 0.290543 55.845 -3.25369e-07 
154 1 -5.81214e-05 0.214296 0.332409 55.845 -8.07159e-09 
155 1 0.0356437 0.214233 0.2906 55.845 -3.44638e-08 
156 1 0.0357851 0.250016 0.33235 55.845 -5.08149e-08 
158 1 -9.93863e-05 0.142835 0.33247 55.845 9.28205e-08 
159 1 0.0356998 0.142859 0.290513 55.845 -2.70909e-07 
160 1 0.0356155 0.178595 0.332527 55.845 -2.86172e-08 
161 1 0.0714613 0.178588 0.290567 55.845 1.35926e-09 
162 1 0.0713754 0.214315 0.332291 55.845 -6.55731e-08 
163 1 0.107153 0.214303 0.290393 55.845 1.4237e-07 
164 1 0.107148 0.249944 0.332541 55.845 -3.53633e-07 
170 1 0.0713053 0.142866 0.332456 55.845 -1.55593e-08 
171 1 0.107174 0.142821 0.290547 55.845 -3.55955e-09 
172 1 0.10708 0.178585 0.332362 55.845 -1.30959e-08 
256 1 -9.29521e-05 0.214214 0.249436 55.845 -1.65432e-07 
258 1 0.0357273 0.250016 0.249303 55.845 -1.39749e-09 
260 1 -5.02327e-05 0.142915 0.249489 55.845 -6.19112e-08 
262 1 0.0356966 0.178564 0.249424 55.845 -7.03193e-08 
264 1 0.0713482 0.214238 0.249299 55.845 9.35341e-11 
266 1 0.10706 0.249975 0.249179 55.845 -3.02202e-07 
272 1 0.0714151 0.142867 0.249351 55.845 1.85316e-08 
274 1 0.107145 0.178507 0.24923 55.845 2.41987e-08 
11 1 0.142841 0.17857 0.457965 55.845 -4.18597e-07 
12 1 0.178478 0.214277 0.457897 55.845 -2.14841e-07 
17 1 0.178546 0.142914 0.458042 55.845 -4.30975e-07 
18 1 0.214239 0.178569 0.457843 55.845 -2.64953e-07 
19 1 0.249988 0.21429 0.457834 55.845 -3.62176e-07 
24 1 0.250043 0.142892 0.457935 55.845 -2.73943e-07 
71 1 0.14279 0.17856 0.374418 55.845 1.97409e-07 
72 1 0.142777 0.214192 0.416479 55.845 -9.79642e-08 
73 1 0.17849 0.214186 0.374404 55.845 1.67082e-07 
82 1 0.142763 0.14285 0.416272 55.845 3.93414e-08 
83 1 0.178492 0.142895 0.374571 55.845 1.80483e-07 
84 1 0.178556 0.178551 0.416317 55.845 4.36171e-09 
85 1 0.214178 0.178606 0.374464 55.845 1.34502e-07 
86 1 0.214308 0.214259 0.416282 55.845 -5.05905e-08 
87 1 0.250018 0.214352 0.37455 55.845 2.49469e-07 
96 1 0.214273 0.142791 0.416454 55.845 1.78979e-08 
97 1 0.249958 0.142853 0.374424 55.845 4.94482e-08 
98 1 0.250024 0.178484 0.416311 55.845 2.82654e-08 
173 1 0.142807 0.178602 0.290488 55.845 1.52638e-07 
174 1 0.142732 0.214243 0.332503 55.845 -2.22934e-07 
175 1 0.178511 0.21435 0.290507 55.845 2.30695e-09 
184 1 0.142768 0.142852 0.332516 55.845 6.30167e-08 
185 1 0.178539 0.142858 0.290472 55.845 1.27879e-07 
186 1 0.178472 0.17856 0.33245 55.845 -9.43943e-08 
187 1 0.214219 0.178575 0.29048 55.845 -9.39599e-08 
188 1 0.214222 0.214336 0.332474 55.845 -1.34495e-07 
189 1 0.249913 0.21422 0.290486 55.845 -1.00168e-08 
198 1 0.214225 0.142947 0.332628 55.845 -7.31763e-08 
199 1 0.249968 0.142951 0.290593 55.845 -2.89624e-07 
200 1 0.250002 0.17856 0.332376 55.845 -1.89373e-07 
276 1 0.142846 0.214243 0.249189 55.845 -2.71887e-07 
286 1 0.142784 0.142849 0.249294 55.845 -5.0516e-08 
288 1 0.17854 0.178572 0.249379 55.845 -1.94441e-07 
290 1 0.214172 0.214264 0.249253 55.845 -1.28675e-07 
300 1 0.214274 0.142818 0.249211 55.845 -9.67579e-08 
302 1 0.249977 0.178593 0.249427 55.845 -4.83427e-08 
25 1 0.285655 0.178627 0.457742 55.845 -3.01526e-07 
26 1 0.321439 0.214268 0.457806 55.845 -4.02435e-07 
31 1 0.32142 0.142909 0.457989 55.845 -4.79881e-07 
32 1 0.357091 0.178588 0.457895 55.845 -4.85111e-07 
99 1 0.285694 0.178614 0.374377 55.845 4.58877e-08 
100 1 0.285711 0.214308 0.416162 55.845 3.50276e-08 
101 1 0.321461 0.214327 0.374478 55.845 1.12118e-07 
110 1 0.285638 0.14291 0.416233 55.845 7.69898e-08 
111 1 0.321363 0.142905 0.374444 55.845 -2.65818e-08 
112 1 0.321359 0.178531 0.416208 55.845 1.24005e-07 
113 1 0.357114 0.178624 0.374486 55.845 2.02925e-08 
114 1 0.357091 0.214372 0.416401 55.845 8.6829e-08 
126 1 0.357124 0.142881 0.416342 55.845 2.7513e-07 
201 1 0.285658 0.178543 0.290499 55.845 -3.03163e-07 
202 1 0.285655 0.214329 0.332374 55.845 1.34515e-08 
203 1 0.321356 0.214451 0.290512 55.845 -1.13294e-07 
212 1 0.285655 0.142835 0.332386 55.845 -8.33571e-08 
213 1 0.321528 0.142912 0.290614 55.845 -2.38161e-07 
214 1 0.321481 0.17862 0.332429 55.845 -1.94886e-08 
215 1 0.357268 0.178598 0.290551 55.845 -4.7266e-08 