ITEM: TIMESTEP
3900
ITEM: NUMBER OF ATOMS
5880
ITEM: BOX BOUNDS pp pp ff
-28.0027 28.0027
-28.0027 28.0027
0 34.092
ITEM: ATOMS id type xs ys zs mass q 
259 1 -6.31207e-05 0.107173 0.207669 55.845 5.63715e-07 
267 1 -3.89266e-05 0.0357721 0.207719 55.845 5.93554e-07 
269 1 0.0356708 0.0714003 0.207747 55.845 6.66883e-07 
271 1 0.0714605 0.107155 0.207681 55.845 5.71246e-07 
279 1 0.0356985 4.69667e-05 0.207666 55.845 4.09471e-07 
281 1 0.0714879 0.0357368 0.207699 55.845 6.48174e-07 
283 1 0.107101 0.0714847 0.207594 55.845 6.57524e-07 
293 1 0.107185 3.94877e-05 0.207759 55.845 4.93892e-07 
361 1 4.66076e-05 0.10709 0.124216 55.845 -4.02885e-07 
369 1 1.38318e-05 0.0357273 0.124244 55.845 -5.33322e-07 
370 1 0.000129265 0.0714868 0.166215 55.845 -4.50513e-07 
371 1 0.0357314 0.0713973 0.124226 55.845 -3.98154e-07 
372 1 0.0357171 0.107132 0.166197 55.845 -3.62662e-07 
373 1 0.0715272 0.107105 0.124327 55.845 -1.13715e-07 
380 1 -0.00016331 5.63362e-05 0.166308 55.845 -3.67292e-07 
381 1 0.035607 3.05488e-05 0.124419 55.845 -4.15829e-07 
382 1 0.0357411 0.0357205 0.166218 55.845 -5.28511e-07 
383 1 0.0714235 0.0357041 0.124426 55.845 -2.9077e-07 
384 1 0.071407 0.0715184 0.166182 55.845 -1.94879e-07 
385 1 0.107161 0.0713857 0.124435 55.845 -4.09131e-07 
386 1 0.107104 0.107247 0.166187 55.845 -1.33438e-07 
394 1 0.0714437 4.19637e-05 0.166325 55.845 -2.729e-07 
395 1 0.107116 1.61878e-05 0.124445 55.845 -2.1689e-07 
396 1 0.107174 0.0357131 0.166369 55.845 -4.54634e-07 
463 1 0 0.107143 0.0416667 55.845 1.09665e-07 
471 1 0 0.0357143 0.0416667 55.845 1.33261e-07 
472 1 2.64252e-05 0.0713741 0.0821468 55.845 1.82091e-08 
473 1 0.0357143 0.0714286 0.0416667 55.845 2.43172e-07 
474 1 0.0357627 0.107169 0.0822638 55.845 5.79148e-07 
475 1 0.0714286 0.107143 0.0416667 55.845 2.49779e-07 
482 1 3.92774e-05 3.06428e-06 0.0820609 55.845 4.14557e-07 
483 1 0.0357143 0 0.0416667 55.845 2.31545e-07 
484 1 0.0357569 0.0356987 0.0821945 55.845 3.88463e-07 
485 1 0.0714286 0.0357143 0.0416667 55.845 4.19308e-07 
486 1 0.0714323 0.0714084 0.0821899 55.845 4.32954e-07 
487 1 0.107143 0.0714286 0.0416667 55.845 5.94448e-08 
488 1 0.107161 0.107138 0.0822646 55.845 4.95262e-08 
496 1 0.0713501 9.13495e-05 0.0822277 55.845 3.88189e-07 
497 1 0.107143 0 0.0416667 55.845 2.09674e-07 
498 1 0.107223 0.0356985 0.0822199 55.845 4.14668e-07 
567 1 0 0.0714286 0 55.845 -3.84011e-07 
568 1 0.0357143 0.107143 0 55.845 -5.68139e-07 
572 1 0 0 0 55.845 -3.44664e-07 
573 1 0.0357143 0.0357143 0 55.845 -7.54716e-08 
574 1 0.0714286 0.0714286 0 55.845 -2.33707e-07 
575 1 0.107143 0.107143 0 55.845 -1.61461e-07 
579 1 0.0714286 0 0 55.845 -1.71473e-07 
580 1 0.107143 0.0357143 0 55.845 -2.56898e-07 
285 1 0.142911 0.107184 0.207649 55.845 5.08396e-07 
295 1 0.142892 0.0357439 0.207668 55.845 4.79836e-07 
297 1 0.178633 0.0714072 0.207781 55.845 5.1947e-07 
299 1 0.214328 0.107225 0.207732 55.845 2.99757e-07 
307 1 0.178535 2.66539e-05 0.207689 55.845 3.98688e-07 
309 1 0.214264 0.0357249 0.207678 55.845 6.3549e-07 
311 1 0.24997 0.0714124 0.207975 55.845 6.84698e-07 
387 1 0.142945 0.107147 0.124196 55.845 -3.42869e-07 
397 1 0.142929 0.0357609 0.124405 55.845 -2.12715e-07 
398 1 0.142898 0.0714687 0.166361 55.845 -2.05843e-07 
399 1 0.178606 0.0714771 0.124253 55.845 -1.40934e-07 
400 1 0.178567 0.107155 0.166237 55.845 -1.88919e-07 
401 1 0.214285 0.107132 0.124285 55.845 -3.16511e-07 
408 1 0.142903 -2.07692e-05 0.166271 55.845 -5.56537e-07 
409 1 0.178589 -2.84303e-05 0.124347 55.845 -2.98358e-07 
410 1 0.178578 0.0357742 0.16616 55.845 -2.97109e-07 
411 1 0.214276 0.0357945 0.124304 55.845 -3.27094e-07 
412 1 0.214251 0.0714352 0.166232 55.845 -2.01297e-07 
413 1 0.250008 0.0714097 0.124411 55.845 -2.64943e-07 
414 1 0.249955 0.107112 0.166287 55.845 -4.13651e-07 
424 1 0.214309 2.98924e-05 0.166205 55.845 -5.10286e-07 
426 1 0.249975 0.0357023 0.166248 55.845 -2.04201e-07 
489 1 0.142857 0.107143 0.0416667 55.845 8.7172e-08 
499 1 0.142857 0.0357143 0.0416667 55.845 2.87589e-07 
500 1 0.142883 0.0714663 0.0822151 55.845 1.29653e-07 
501 1 0.178571 0.0714286 0.0416667 55.845 1.31728e-07 
502 1 0.178603 0.107123 0.0820316 55.845 1.63782e-07 
503 1 0.214286 0.107143 0.0416667 55.845 1.01676e-08 
510 1 0.142842 -2.29604e-05 0.0822113 55.845 4.05934e-07 
511 1 0.178571 0 0.0416667 55.845 2.18139e-07 
512 1 0.178586 0.0357349 0.0822104 55.845 4.51661e-07 
513 1 0.214286 0.0357143 0.0416667 55.845 1.16982e-07 
514 1 0.214255 0.0714749 0.0821298 55.845 2.26843e-07 
515 1 0.25 0.0714286 0.0416667 55.845 4.07766e-07 
516 1 0.25004 0.107063 0.0822263 55.845 4.60257e-07 
526 1 0.214339 -3.52732e-05 0.0821286 55.845 3.05476e-07 
528 1 0.250012 0.0357332 0.0821423 55.845 1.93048e-07 
581 1 0.142857 0.0714286 0 55.845 -9.6436e-08 
582 1 0.178571 0.107143 0 55.845 -1.48265e-07 
586 1 0.142857 0 0 55.845 -4.29831e-07 
587 1 0.178571 0.0357143 0 55.845 -2.05532e-07 
588 1 0.214286 0.0714286 0 55.845 -2.70755e-07 
589 1 0.25 0.107143 0 55.845 -7.49756e-08 
594 1 0.214286 0 0 55.845 -3.35409e-07 
595 1 0.25 0.0357143 0 55.845 -9.18333e-08 
313 1 0.285773 0.107005 0.207686 55.845 6.65622e-07 
323 1 0.249997 1.21697e-05 0.207722 55.845 5.23858e-07 
325 1 0.28575 0.0357003 0.207698 55.845 5.16824e-07 
327 1 0.321403 0.0713515 0.20775 55.845 3.93146e-07 
329 1 0.357216 0.107226 0.207794 55.845 6.00725e-07 
337 1 0.321463 -4.40678e-05 0.207591 55.845 4.89855e-07 
339 1 0.357188 0.0356641 0.20765 55.845 1.93829e-07 
415 1 0.285664 0.107185 0.124307 55.845 -3.4619e-07 
425 1 0.250049 -4.2045e-05 0.124439 55.845 -3.14706e-07 
427 1 0.285723 0.0357332 0.12429 55.845 -1.23158e-07 
428 1 0.28572 0.0714513 0.166227 55.845 -3.04223e-07 
429 1 0.321375 0.071452 0.124429 55.845 -1.70874e-07 
430 1 0.321478 0.107128 0.166357 55.845 -9.7387e-08 
431 1 0.357002 0.107163 0.124265 55.845 -2.222e-07 
439 1 0.321375 1.82852e-05 0.124313 55.845 -2.56903e-07 
440 1 0.321433 0.0356655 0.166343 55.845 -2.79517e-07 
441 1 0.357121 0.0357667 0.124276 55.845 -1.79439e-07 
442 1 0.357118 0.0714457 0.166295 55.845 -4.10881e-07 
517 1 0.285714 0.107143 0.0416667 55.845 4.45817e-07 
527 1 0.25 0 0.0416667 55.845 1.1278e-08 
529 1 0.285714 0.0357143 0.0416667 55.845 2.62959e-07 
530 1 0.285734 0.0714146 0.0820888 55.845 4.82892e-07 
531 1 0.321429 0.0714286 0.0416667 55.845 2.49621e-08 
532 1 0.321421 0.107157 0.0821442 55.845 2.30139e-07 
533 1 0.357143 0.107143 0.0416667 55.845 1.31335e-07 
603 1 0.357143 0.0714286 0 55.845 -6.6142e-07 
541 1 0.321429 0 0.0416667 55.845 5.77353e-08 
542 1 0.321465 0.0356969 0.08219 55.845 4.81506e-07 
543 1 0.357143 0.0357143 0.0416667 55.845 1.42159e-07 
544 1 0.357125 0.0714253 0.0822274 55.845 3.51687e-07 
602 1 0.321429 0.0357143 0 55.845 -3.72696e-07 
596 1 0.285714 0.0714286 0 55.845 -7.20532e-09 
597 1 0.321429 0.107143 0 55.845 -3.63394e-07 
612 1 0.464286 0.0357143 0 55.845 -2.83215e-07 
611 1 0.428571 0 0 55.845 -1.52332e-07 
610 1 0.464286 0.107143 0 55.845 -4.1983e-07 
609 1 0.428571 0.0714286 0 55.845 -4.53267e-07 
608 1 0.392857 0.0357143 0 55.845 -4.49762e-07 
341 1 0.392798 0.0713856 0.207811 55.845 4.75408e-07 
343 1 0.428553 0.107109 0.207807 55.845 9.41056e-07 
348 1 0.392823 -2.44566e-05 0.207634 55.845 2.93311e-07 
350 1 0.428562 0.0356582 0.207813 55.845 4.44877e-07 
352 1 0.464246 0.0713868 0.207724 55.845 7.55838e-07 
355 1 0.464296 1.35096e-05 0.207861 55.845 4.48038e-07 
443 1 0.392857 0.0713749 0.124302 55.845 -4.13252e-07 
444 1 0.392823 0.107124 0.166207 55.845 -4.12166e-07 
445 1 0.428559 0.107069 0.124189 55.845 -4.76704e-07 
604 1 0.392857 0.107143 0 55.845 1.38159e-07 
450 1 0.392789 -1.37285e-05 0.124388 55.845 -4.71369e-07 
451 1 0.392882 0.0357211 0.166225 55.845 -5.41586e-07 
452 1 0.42858 0.0356141 0.124299 55.845 -4.1903e-07 
453 1 0.428519 0.0714091 0.166289 55.845 -2.93768e-07 
454 1 0.464308 0.0713367 0.124322 55.845 -4.10299e-07 
455 1 0.464209 0.10709 0.166216 55.845 -2.02837e-07 
456 1 0.428526 4.52343e-05 0.166201 55.845 -2.29471e-07 
457 1 0.464355 2.01148e-05 0.124405 55.845 -2.77483e-07 
458 1 0.464243 0.0357529 0.166341 55.845 -3.29451e-07 
545 1 0.392857 0.0714286 0.0416667 55.845 1.74841e-07 
546 1 0.392791 0.107067 0.0821386 55.845 3.95664e-07 
547 1 0.428571 0.107143 0.0416667 55.845 3.22961e-07 
552 1 0.392857 0 0.0416667 55.845 2.2667e-07 
553 1 0.392811 0.0357363 0.0821022 55.845 3.79436e-07 
554 1 0.428571 0.0357143 0.0416667 55.845 1.07677e-07 
555 1 0.428556 0.0714439 0.082305 55.845 1.24707e-07 
556 1 0.464286 0.0714286 0.0416667 55.845 4.287e-08 
557 1 0.464284 0.107122 0.0822184 55.845 3.75062e-07 
558 1 0.428548 -2.94461e-05 0.082128 55.845 4.26196e-07 
559 1 0.464286 0 0.0416667 55.845 1.53461e-07 
560 1 0.46424 0.03569 0.0821554 55.845 3.30552e-07 
255 1 5.08761e-05 0.178577 0.207704 55.845 6.00074e-07 
257 1 0.0357691 0.214301 0.207627 55.845 6.37536e-07 
261 1 0.0357321 0.142831 0.207779 55.845 3.21988e-07 
263 1 0.0715018 0.178542 0.207757 55.845 5.36436e-07 
265 1 0.107184 0.214285 0.207687 55.845 6.92298e-07 
273 1 0.107182 0.142906 0.207683 55.845 6.39437e-07 
357 1 3.16722e-05 0.178574 0.124193 55.845 -3.32271e-07 
358 1 -3.78524e-05 0.214236 0.166306 55.845 -2.31991e-07 
359 1 0.0357071 0.214274 0.124411 55.845 -3.99378e-07 
360 1 0.0356973 0.249966 0.166321 55.845 -9.6549e-08 
362 1 4.42729e-05 0.142837 0.166248 55.845 -1.69619e-07 
363 1 0.0357456 0.142901 0.124386 55.845 -1.69201e-07 
364 1 0.0356455 0.178605 0.166301 55.845 -5.36971e-07 
365 1 0.0714374 0.178582 0.124241 55.845 -3.7658e-07 
366 1 0.0714458 0.214237 0.16629 55.845 -3.34873e-07 
367 1 0.107097 0.214227 0.12433 55.845 -1.28862e-07 
368 1 0.107236 0.249975 0.166361 55.845 -3.92185e-07 
374 1 0.0713953 0.142924 0.166264 55.845 -2.82474e-07 
375 1 0.107199 0.142869 0.124242 55.845 -2.58939e-07 
376 1 0.107159 0.178535 0.166292 55.845 -2.7841e-08 
459 1 0 0.178571 0.0416667 55.845 1.24169e-07 
460 1 -1.70792e-05 0.214316 0.0822432 55.845 2.86153e-07 
461 1 0.0357143 0.214286 0.0416667 55.845 2.32655e-07 
462 1 0.0357469 0.249951 0.0820969 55.845 1.66696e-07 
464 1 1.7178e-05 0.142846 0.082242 55.845 3.12833e-07 
465 1 0.0357143 0.142857 0.0416667 55.845 3.56117e-07 
466 1 0.0357163 0.178569 0.0821601 55.845 4.56956e-07 
467 1 0.0714286 0.178571 0.0416667 55.845 2.74401e-07 
468 1 0.0714492 0.214285 0.0821695 55.845 2.84617e-07 
469 1 0.107143 0.214286 0.0416667 55.845 1.51722e-07 
470 1 0.107131 0.249949 0.0821737 55.845 4.79726e-07 
476 1 0.0714749 0.142877 0.082225 55.845 4.69793e-07 
477 1 0.107143 0.142857 0.0416667 55.845 2.83439e-08 
478 1 0.107176 0.178519 0.0821364 55.845 1.48604e-07 
561 1 0 0.214286 0 55.845 -3.31229e-07 
562 1 0.0357143 0.25 0 55.845 -9.66113e-08 
563 1 0 0.142857 0 55.845 -3.90468e-07 
564 1 0.0357143 0.178571 0 55.845 -2.4394e-07 
565 1 0.0714286 0.214286 0 55.845 -1.73811e-08 
566 1 0.107143 0.25 0 55.845 -4.01693e-07 
569 1 0.0714286 0.142857 0 55.845 -2.07891e-07 
570 1 0.107143 0.178571 0 55.845 -2.24486e-07 
275 1 0.142868 0.178535 0.207755 55.845 5.46135e-07 
277 1 0.178667 0.214319 0.207791 55.845 1.35877e-07 
287 1 0.178549 0.142841 0.207724 55.845 3.25913e-07 
289 1 0.214333 0.178624 0.207744 55.845 3.39935e-07 
291 1 0.250046 0.21419 0.207738 55.845 6.54499e-07 
301 1 0.249969 0.142843 0.207627 55.845 5.76777e-07 
377 1 0.142829 0.178592 0.124245 55.845 -3.17159e-07 
378 1 0.14284 0.214228 0.1662 55.845 -2.85512e-07 
379 1 0.178555 0.214261 0.124317 55.845 -2.30249e-07 
388 1 0.14287 0.142889 0.166291 55.845 -9.67238e-08 
389 1 0.178604 0.142797 0.124285 55.845 -4.47614e-07 
390 1 0.178598 0.17858 0.166229 55.845 -6.09388e-07 
391 1 0.214319 0.178509 0.124315 55.845 -9.50376e-08 
392 1 0.214333 0.214256 0.166127 55.845 -1.96597e-07 
393 1 0.249935 0.214228 0.124266 55.845 -8.14911e-08 
402 1 0.214262 0.142795 0.16626 55.845 -4.22062e-07 
403 1 0.250047 0.142763 0.124331 55.845 -2.9337e-07 
404 1 0.250036 0.178439 0.166107 55.845 -1.33406e-07 
479 1 0.142857 0.178571 0.0416667 55.845 1.30603e-07 
480 1 0.142928 0.214301 0.082157 55.845 5.01909e-07 
481 1 0.178571 0.214286 0.0416667 55.845 2.78896e-07 
490 1 0.142912 0.142836 0.0821479 55.845 4.37184e-08 
491 1 0.178571 0.142857 0.0416667 55.845 7.23458e-08 
492 1 0.178554 0.178528 0.0822029 55.845 2.74871e-07 
493 1 0.214286 0.178571 0.0416667 55.845 2.20615e-08 
494 1 0.21429 0.214223 0.0821212 55.845 5.16651e-07 
495 1 0.25 0.214286 0.0416667 55.845 6.73015e-08 
504 1 0.214301 0.142832 0.0822487 55.845 2.05805e-07 
505 1 0.25 0.142857 0.0416667 55.845 1.56519e-07 
506 1 0.249967 0.178495 0.0822706 55.845 4.54344e-07 
571 1 0.142857 0.214286 0 55.845 -3.25083e-07 
576 1 0.142857 0.142857 0 55.845 1.69639e-07 
577 1 0.178571 0.178571 0 55.845 -1.15911e-07 
578 1 0.214286 0.214286 0 55.845 -2.74566e-07 
583 1 0.214286 0.142857 0 55.845 -5.15049e-07 
584 1 0.25 0.178571 0 55.845 -3.59162e-07 
303 1 0.285743 0.178586 0.207798 55.845 3.88455e-07 
305 1 0.321506 0.214299 0.207713 55.845 3.0277e-07 
315 1 0.321475 0.14284 0.207822 55.845 7.96891e-07 
317 1 0.35717 0.178571 0.207811 55.845 4.54391e-07 
405 1 0.285783 0.178504 0.124241 55.845 -4.11057e-07 
406 1 0.285746 0.214239 0.166308 55.845 -5.75578e-07 
407 1 0.321463 0.214238 0.124309 55.845 -2.81406e-07 
416 1 0.285755 0.142838 0.166242 55.845 -2.62463e-07 
417 1 0.321432 0.142931 0.124316 55.845 -2.36994e-07 
418 1 0.321514 0.178548 0.166279 55.845 -3.48713e-07 
419 1 0.357173 0.178589 0.124358 55.845 -3.74386e-08 
420 1 0.357112 0.214324 0.166215 55.845 -1.53949e-07 
432 1 0.35713 0.142906 0.166242 55.845 -2.3134e-08 
507 1 0.285714 0.178571 0.0416667 55.845 1.5095e-07 
508 1 0.285715 0.214248 0.0823517 55.845 1.44538e-07 
509 1 0.321429 0.214286 0.0416667 55.845 1.07107e-07 
518 1 0.285773 0.142831 0.0822065 55.845 2.75239e-07 
519 1 0.321429 0.142857 0.0416667 55.845 1.23532e-07 
520 1 0.321462 0.178569 0.0821458 55.845 2.50565e-07 
521 1 0.357143 0.178571 0.0416667 55.845 -4.40089e-08 
522 1 0.357142 0.214225 0.0821298 55.845 4.16075e-07 
534 1 0.357138 0.142889 0.0821109 55.845 2.32281e-07 
585 1 0.285714 0.214286 0 55.845 -1.5895e-07 
590 1 0.285714 0.142857 0 55.845 1.22505e-08 
591 1 0.321429 0.178571 0 55.845 -1.94218e-07 
592 1 0.357143 0.214286 0 55.845 -4.56513e-07 
598 1 0.357143 0.142857 0 55.845 -8.77571e-08 
319 1 0.392884 0.214294 0.2076 55.845 5.46423e-07 
321 1 0.428564 0.250006 0.207659 55.845 5.96437e-07 
331 1 0.392813 0.142834 0.207718 55.845 3.83256e-07 
333 1 0.428535 0.178622 0.207699 55.845 7.96407e-07 
335 1 0.464215 0.214245 0.207723 55.845 6.89857e-07 
345 1 0.464285 0.142842 0.207719 55.845 8.24779e-07 
606 1 0.464286 0.178571 0 55.845 -3.83851e-07 
421 1 0.392779 0.214299 0.124229 55.845 -1.89236e-07 
422 1 0.392926 0.249987 0.166237 55.845 -5.35907e-07 
423 1 0.428668 0.250016 0.124265 55.845 -5.25057e-07 
433 1 0.392814 0.142912 0.124274 55.845 -4.25739e-07 
434 1 0.392862 0.17863 0.1663 55.845 -2.91249e-07 
435 1 0.428529 0.178551 0.124231 55.845 -3.79963e-07 
436 1 0.428568 0.214224 0.166236 55.845 -3.54205e-07 
437 1 0.464359 0.214244 0.124373 55.845 -3.99462e-07 
605 1 0.428571 0.142857 0 55.845 -1.517e-07 
446 1 0.428578 0.14282 0.166252 55.845 -2.55592e-07 
447 1 0.464267 0.142876 0.124308 55.845 -1.67192e-07 
448 1 0.464275 0.178524 0.166423 55.845 -2.25423e-07 
523 1 0.392857 0.214286 0.0416667 55.845 1.39957e-07 
524 1 0.392918 0.250017 0.0821265 55.845 1.9744e-07 
525 1 0.428571 0.25 0.0416667 55.845 4.03574e-07 
535 1 0.392857 0.142857 0.0416667 55.845 2.6681e-07 
536 1 0.392776 0.178502 0.0821444 55.845 9.19907e-08 
537 1 0.428571 0.178571 0.0416667 55.845 9.84033e-08 
538 1 0.428569 0.214295 0.0821787 55.845 2.05006e-07 
539 1 0.464286 0.214286 0.0416667 55.845 2.62511e-07 
548 1 0.428593 0.142807 0.0821854 55.845 3.68434e-07 
549 1 0.464286 0.142857 0.0416667 55.845 3.88505e-07 
550 1 0.464285 0.178641 0.0820798 55.845 4.86235e-07 
593 1 0.392857 0.25 0 55.845 -3.76649e-08 
599 1 0.392857 0.178571 0 55.845 -5.67307e-07 
600 1 0.428571 0.214286 0 55.845 -1.06099e-07 
3 1 -2.67014e-05 0.107068 0.458809 55.845 -2.14942e-07 
7 1 8.46779e-06 0.0356715 0.45881 55.845 -1.1318e-06 
8 1 0.035694 0.0714452 0.458707 55.845 -6.991e-08 
9 1 0.071418 0.107175 0.45875 55.845 -3.89218e-07 
13 1 0.0357157 -3.32289e-05 0.458755 55.845 -5.5427e-07 
14 1 0.0713689 0.0357402 0.458697 55.845 -5.59141e-08 
15 1 0.107146 0.0714269 0.458645 55.845 -7.10132e-07 
20 1 0.107086 -7.44029e-06 0.458715 55.845 -5.77308e-07 
55 1 -2.03381e-05 0.107138 0.374727 55.845 5.56619e-07 
63 1 5.56317e-05 0.0356768 0.374646 55.845 5.56472e-07 
64 1 -5.71675e-05 0.0713901 0.416662 55.845 -3.53925e-07 
65 1 0.0357463 0.0714487 0.374676 55.845 2.7762e-07 
66 1 0.0357052 0.107178 0.416935 55.845 -2.60816e-07 
67 1 0.0713608 0.107188 0.374656 55.845 5.2718e-07 
74 1 -4.6605e-05 -7.02655e-05 0.416872 55.845 -4.11644e-10 
75 1 0.0356515 -9.5237e-05 0.374597 55.845 6.1935e-07 
76 1 0.0356848 0.0357007 0.41673 55.845 9.3953e-08 
77 1 0.0713952 0.0356363 0.374587 55.845 5.0926e-07 
78 1 0.0714321 0.0714427 0.416784 55.845 2.33309e-07 
79 1 0.107155 0.0714148 0.374647 55.845 5.41127e-07 
80 1 0.107106 0.107144 0.41672 55.845 -2.99613e-07 
88 1 0.071385 -6.26401e-05 0.41682 55.845 -7.04918e-08 
89 1 0.107169 -3.01871e-05 0.374771 55.845 2.31662e-07 
90 1 0.107112 0.0357031 0.416798 55.845 -1.28547e-07 
157 1 -4.5619e-05 0.10719 0.290113 55.845 -7.1431e-07 
165 1 -3.54341e-05 0.0357686 0.290014 55.845 -3.54778e-07 
166 1 4.89325e-05 0.0714176 0.332229 55.845 -3.44365e-08 
167 1 0.035732 0.071444 0.289979 55.845 -4.89642e-07 
168 1 0.0357881 0.107134 0.332177 55.845 -2.43384e-07 
169 1 0.0714648 0.107109 0.290058 55.845 -6.09046e-07 
176 1 -2.29648e-05 -1.41703e-05 0.332214 55.845 1.78023e-07 
177 1 0.0356819 -3.52211e-05 0.289996 55.845 -6.36477e-07 
178 1 0.035741 0.0357051 0.332117 55.845 -7.06684e-09 
179 1 0.0714264 0.035717 0.290043 55.845 -6.12334e-07 
180 1 0.0714164 0.0714474 0.332171 55.845 -3.05374e-07 
181 1 0.107229 0.0714483 0.289908 55.845 -3.60086e-07 
182 1 0.107132 0.107119 0.332238 55.845 -3.67801e-08 
190 1 0.0714662 6.63608e-06 0.332295 55.845 -6.17168e-07 
191 1 0.10714 2.50069e-05 0.290056 55.845 -6.98692e-07 
192 1 0.107164 0.0357957 0.33223 55.845 -2.45252e-07 
268 1 4.35463e-06 0.0715367 0.24851 55.845 9.14428e-08 
270 1 0.0356476 0.107138 0.248459 55.845 -6.18234e-08 
278 1 -3.43988e-05 9.27909e-06 0.248434 55.845 -1.52924e-07 
280 1 0.035678 0.0356764 0.248453 55.845 3.71034e-07 
282 1 0.0714329 0.0713827 0.248467 55.845 3.57531e-07 
284 1 0.10707 0.107209 0.248433 55.845 -5.04961e-08 
292 1 0.0714349 -2.74582e-05 0.248622 55.845 -5.29612e-08 
294 1 0.107115 0.035763 0.248562 55.845 7.71493e-08 
16 1 0.142895 0.107176 0.458771 55.845 -5.28262e-07 
21 1 0.142933 0.0357394 0.458651 55.845 -6.39398e-07 
22 1 0.178628 0.0714396 0.458721 55.845 1.28815e-08 
23 1 0.214335 0.107096 0.458799 55.845 -7.52283e-07 
27 1 0.178628 1.17347e-05 0.458784 55.845 -2.86893e-07 
28 1 0.214333 0.0357193 0.45882 55.845 -3.44641e-07 
29 1 0.250081 0.0713978 0.458867 55.845 -5.19056e-07 
81 1 0.14285 0.107124 0.374689 55.845 7.54653e-07 
91 1 0.142842 0.0356677 0.374574 55.845 5.56808e-07 
92 1 0.142816 0.0713807 0.41685 55.845 -1.18006e-07 
93 1 0.178519 0.0714078 0.374709 55.845 7.85827e-07 
94 1 0.178605 0.10723 0.416724 55.845 -8.15324e-09 
95 1 0.214271 0.107139 0.374844 55.845 4.93958e-07 
102 1 0.142855 3.86722e-05 0.416914 55.845 -2.44069e-07 
103 1 0.178569 -3.68209e-05 0.374779 55.845 9.34464e-08 
104 1 0.178552 0.0357702 0.416789 55.845 1.04775e-08 
105 1 0.214287 0.0357181 0.374643 55.845 2.62498e-07 
106 1 0.214356 0.071435 0.416869 55.845 5.57781e-08 
107 1 0.249964 0.0714202 0.374541 55.845 5.89576e-07 
108 1 0.250004 0.107123 0.416853 55.845 -1.45481e-07 
118 1 0.214267 2.94582e-05 0.416842 55.845 -3.8456e-07 
120 1 0.250053 0.0357234 0.416847 55.845 -2.95678e-07 
183 1 0.142927 0.107134 0.290178 55.845 -6.65097e-07 
193 1 0.142926 0.0357327 0.290189 55.845 -3.28266e-07 
194 1 0.1429 0.0714586 0.332298 55.845 1.24958e-07 
195 1 0.17857 0.071389 0.290075 55.845 -8.70287e-07 
196 1 0.178606 0.10715 0.332327 55.845 -2.53503e-08 
197 1 0.214267 0.107141 0.290116 55.845 -6.26109e-07 
204 1 0.142847 1.80985e-05 0.332267 55.845 -1.63992e-07 
205 1 0.178564 -1.39578e-06 0.290085 55.845 -2.57008e-07 
206 1 0.1786 0.0357461 0.3323 55.845 -2.29876e-07 
207 1 0.21431 0.0357045 0.290216 55.845 -4.46115e-07 
208 1 0.214245 0.0714713 0.332406 55.845 -2.50699e-07 
209 1 0.249987 0.0714421 0.290218 55.845 -3.37885e-07 
210 1 0.249979 0.107229 0.332333 55.845 -4.83556e-08 
220 1 0.214295 -3.06119e-05 0.332351 55.845 -3.31824e-07 
222 1 0.249995 0.0356766 0.332363 55.845 1.10542e-07 
296 1 0.142873 0.0714783 0.248472 55.845 -1.44884e-08 
298 1 0.178581 0.107139 0.248576 55.845 -3.40537e-07 
306 1 0.142857 -6.36451e-05 0.248566 55.845 1.91497e-07 
308 1 0.178552 0.0356565 0.248631 55.845 4.91971e-08 
310 1 0.214316 0.0714391 0.248726 55.845 -3.12087e-08 
312 1 0.250035 0.1072 0.24853 55.845 2.03438e-07 
322 1 0.214238 -1.90817e-05 0.248598 55.845 -7.6976e-08 
324 1 0.250018 0.0357158 0.248633 55.845 2.32385e-07 
30 1 0.285707 0.107143 0.45878 55.845 -3.44535e-07 
35 1 0.249976 -2.00378e-05 0.458673 55.845 -7.274e-07 
36 1 0.285765 0.0357072 0.458672 55.845 -6.66534e-07 
37 1 0.321437 0.0713778 0.458843 55.845 7.58901e-08 
38 1 0.357162 0.107109 0.458739 55.845 -7.02689e-07 
42 1 0.32145 1.50824e-05 0.458789 55.845 -2.78546e-07 
43 1 0.357186 0.0357391 0.458852 55.845 -1.70675e-07 
109 1 0.285706 0.107173 0.374585 55.845 4.18555e-07 
119 1 0.250024 1.10439e-05 0.374746 55.845 6.44857e-07 
121 1 0.285656 0.0357091 0.374692 55.845 5.60938e-07 
122 1 0.285668 0.0715115 0.4168 55.845 1.13217e-07 
123 1 0.321394 0.0713718 0.374742 55.845 4.10526e-07 
124 1 0.321389 0.107152 0.41677 55.845 -6.87222e-08 
125 1 0.357164 0.107105 0.374643 55.845 9.1454e-07 
133 1 0.321443 3.01621e-05 0.374695 55.845 5.86909e-07 
134 1 0.321432 0.0357397 0.416958 55.845 -1.10465e-07 
135 1 0.357115 0.0357205 0.374627 55.845 1.73469e-07 
136 1 0.357191 0.0714608 0.416806 55.845 -3.25957e-07 
211 1 0.285695 0.107147 0.290099 55.845 -6.83379e-07 
221 1 0.249983 -5.03712e-05 0.290232 55.845 -4.97273e-07 
223 1 0.285701 0.0356819 0.290178 55.845 -6.38888e-07 
224 1 0.285691 0.071432 0.332295 55.845 -1.80458e-07 
225 1 0.321423 0.0714086 0.289972 55.845 -5.44985e-07 
226 1 0.321424 0.107057 0.332298 55.845 -1.10182e-07 
227 1 0.357179 0.107161 0.290113 55.845 -3.6397e-07 
235 1 0.321458 1.53112e-05 0.290156 55.845 -5.97601e-07 
236 1 0.321346 0.0357257 0.332325 55.845 -2.14995e-07 
237 1 0.357094 0.0356905 0.290071 55.845 -3.68652e-07 
238 1 0.357083 0.0713966 0.332232 55.845 1.26725e-07 
326 1 0.285659 0.071413 0.248736 55.845 8.66722e-08 
328 1 0.321349 0.107167 0.248612 55.845 3.15241e-07 
338 1 0.321469 0.035613 0.248548 55.845 -2.33103e-07 
340 1 0.357121 0.0714296 0.24857 55.845 2.45216e-07 
44 1 0.392831 0.0713773 0.458878 55.845 -5.04779e-07 
45 1 0.428532 0.107122 0.458866 55.845 -1.62396e-07 
47 1 0.392934 -3.54474e-05 0.458563 55.845 -3.47927e-07 
48 1 0.428532 0.0357278 0.458793 55.845 -4.63887e-07 
49 1 0.464256 0.0715246 0.458735 55.845 -3.25908e-07 
50 1 0.464217 2.2406e-05 0.458757 55.845 -3.308e-07 
137 1 0.392831 0.0713952 0.374632 55.845 4.78798e-07 
138 1 0.392864 0.107083 0.416885 55.845 1.56756e-07 
139 1 0.428566 0.107142 0.374729 55.845 3.28688e-07 
144 1 0.392883 2.5065e-05 0.374601 55.845 6.48619e-07 
145 1 0.392917 0.0357241 0.416733 55.845 -1.98435e-07 
146 1 0.428582 0.0356745 0.374615 55.845 7.91791e-07 
147 1 0.428547 0.0715373 0.416866 55.845 4.52926e-07 
148 1 0.46432 0.0714763 0.374689 55.845 7.44893e-07 
149 1 0.464363 0.107134 0.416863 55.845 -1.05006e-08 
150 1 0.428588 6.06924e-05 0.416737 55.845 4.13989e-08 
151 1 0.464307 1.85081e-05 0.374654 55.845 4.08269e-07 
152 1 0.46427 0.0357397 0.416735 55.845 1.16883e-07 
239 1 0.392834 0.071419 0.290074 55.845 -5.49515e-07 
240 1 0.39283 0.107104 0.332423 55.845 -1.76734e-07 
241 1 0.428529 0.10714 0.290146 55.845 -7.15239e-07 
246 1 0.392821 -3.82233e-06 0.290074 55.845 -5.00776e-07 
247 1 0.392836 0.0357576 0.332139 55.845 1.07974e-07 
248 1 0.428514 0.0356537 0.290275 55.845 -8.11057e-07 
249 1 0.428564 0.0714326 0.332363 55.845 -3.91354e-07 
250 1 0.464302 0.0713755 0.290218 55.845 -8.16909e-07 
251 1 0.464297 0.107144 0.332218 55.845 -2.25417e-07 
252 1 0.428603 -7.53184e-05 0.332277 55.845 -5.00062e-09 
253 1 0.464285 2.04054e-05 0.290163 55.845 -5.40115e-07 
254 1 0.464268 0.0356824 0.332297 55.845 -2.2244e-07 
342 1 0.392848 0.107183 0.2486 55.845 -3.1323e-08 
349 1 0.392868 0.0357066 0.248423 55.845 4.99735e-08 
351 1 0.428575 0.0714291 0.248595 55.845 2.08603e-07 
353 1 0.464247 0.10716 0.248643 55.845 3.54976e-07 
354 1 0.428558 -3.91565e-06 0.248583 55.845 -1.2005e-07 
356 1 0.464247 0.0357531 0.248616 55.845 8.3545e-08 
1 1 -2.12188e-05 0.178513 0.458787 55.845 -6.76128e-07 
2 1 0.0357164 0.21429 0.458802 55.845 -4.17043e-07 
4 1 0.0356105 0.142905 0.458806 55.845 -9.39069e-07 
5 1 0.0713936 0.178556 0.458762 55.845 -3.7084e-07 
6 1 0.107161 0.214281 0.458742 55.845 -3.37719e-07 
10 1 0.107166 0.142884 0.458637 55.845 -3.15873e-07 
51 1 -5.66996e-05 0.178571 0.374704 55.845 3.2192e-07 
52 1 -5.19773e-05 0.214236 0.416939 55.845 -3.6413e-08 
53 1 0.0356278 0.214243 0.374815 55.845 3.4235e-07 
54 1 0.035726 0.250073 0.416907 55.845 -5.62499e-08 
56 1 -7.4779e-06 0.142802 0.416765 55.845 -2.19596e-07 
57 1 0.0357868 0.142861 0.37464 55.845 7.26e-07 
58 1 0.0356762 0.178569 0.416796 55.845 -9.41301e-08 
59 1 0.0714392 0.178609 0.37452 55.845 7.92482e-07 
60 1 0.0713969 0.21429 0.416855 55.845 6.62519e-08 
61 1 0.107183 0.214336 0.374652 55.845 -7.12548e-08 
62 1 0.107114 0.250015 0.416952 55.845 -2.6809e-07 
68 1 0.0713829 0.142871 0.41689 55.845 3.55592e-08 
69 1 0.107124 0.142911 0.374569 55.845 6.34185e-07 
70 1 0.107078 0.17856 0.416799 55.845 -3.58739e-09 
153 1 3.75138e-06 0.178546 0.290104 55.845 -6.87825e-07 
154 1 -1.23134e-05 0.214302 0.332288 55.845 -2.80786e-07 
155 1 0.0357357 0.214246 0.29007 55.845 -6.29562e-07 
156 1 0.035654 0.249997 0.332222 55.845 -2.67936e-07 
158 1 5.7096e-05 0.142839 0.332204 55.845 -2.06669e-07 
159 1 0.0357679 0.142862 0.290199 55.845 -3.15671e-07 
160 1 0.0357234 0.178662 0.332342 55.845 2.97015e-07 
161 1 0.0714465 0.178552 0.290236 55.845 -4.08062e-07 
162 1 0.0714199 0.214341 0.332406 55.845 -4.81073e-07 
163 1 0.107169 0.214296 0.290203 55.845 -7.02414e-07 
164 1 0.10714 0.250059 0.332283 55.845 -5.69857e-08 
170 1 0.0714965 0.142816 0.332244 55.845 3.17588e-07 
171 1 0.107124 0.142823 0.290213 55.845 -7.75545e-07 
172 1 0.107207 0.178557 0.332376 55.845 -5.23539e-07 
256 1 -1.09819e-05 0.214293 0.248493 55.845 6.85619e-09 
258 1 0.0357725 0.249912 0.248659 55.845 1.06461e-07 
260 1 3.20825e-05 0.14287 0.248656 55.845 1.64652e-07 
262 1 0.0358191 0.178597 0.248621 55.845 2.1038e-07 
264 1 0.0715069 0.21418 0.248658 55.845 1.45922e-07 
266 1 0.107139 0.250057 0.248558 55.845 4.04308e-08 
272 1 0.0714867 0.142853 0.248726 55.845 -4.41205e-08 
274 1 0.107063 0.178587 0.248739 55.845 5.47533e-08 
11 1 0.14283 0.178575 0.458844 55.845 -2.40811e-07 
12 1 0.178637 0.214291 0.458894 55.845 -4.28386e-07 
17 1 0.178652 0.142841 0.458848 55.845 -4.42337e-07 
18 1 0.214276 0.178639 0.458905 55.845 -2.68321e-07 
19 1 0.249992 0.214255 0.458922 55.845 -4.62062e-07 
24 1 0.250022 0.142866 0.458763 55.845 -2.09388e-07 
71 1 0.142884 0.178589 0.374749 55.845 4.76786e-07 
72 1 0.142904 0.214258 0.416919 55.845 -1.05672e-07 
73 1 0.178654 0.214254 0.374719 55.845 5.93763e-07 
82 1 0.142847 0.142913 0.416835 55.845 -2.27375e-08 
83 1 0.178547 0.142969 0.374653 55.845 7.72704e-07 
84 1 0.178536 0.178562 0.416932 55.845 -1.06134e-07 
85 1 0.214335 0.178541 0.374707 55.845 3.63314e-07 
86 1 0.214324 0.214307 0.416983 55.845 -3.48498e-07 
87 1 0.250011 0.214318 0.374723 55.845 1.53205e-07 
96 1 0.214305 0.142875 0.417019 55.845 -2.13362e-07 
97 1 0.250039 0.142843 0.374705 55.845 7.16886e-07 
98 1 0.250079 0.178544 0.41686 55.845 4.86855e-07 
173 1 0.142937 0.178539 0.290089 55.845 -3.71716e-07 
174 1 0.142911 0.214313 0.332322 55.845 -6.06038e-08 
175 1 0.178509 0.214329 0.290224 55.845 -2.92409e-07 
184 1 0.142891 0.142894 0.332336 55.845 6.95818e-08 
185 1 0.178611 0.14289 0.290083 55.845 -3.42657e-07 
186 1 0.178615 0.178519 0.332298 55.845 2.67472e-07 
187 1 0.21434 0.178604 0.290041 55.845 -4.81852e-07 
188 1 0.214312 0.214281 0.332339 55.845 -4.1713e-07 
189 1 0.249985 0.214348 0.290347 55.845 -5.10107e-07 
198 1 0.214341 0.142802 0.332319 55.845 1.96587e-07 
199 1 0.25001 0.142944 0.290041 55.845 -4.70291e-07 
200 1 0.250056 0.178518 0.332385 55.845 -2.11413e-07 
276 1 0.142874 0.214291 0.248523 55.845 2.40206e-07 
286 1 0.142807 0.142878 0.248688 55.845 -4.25558e-08 
288 1 0.178552 0.17859 0.248603 55.845 -2.80039e-08 
290 1 0.214322 0.21429 0.248588 55.845 -5.40195e-08 
300 1 0.214274 0.142892 0.248491 55.845 3.47953e-08 
302 1 0.25004 0.17862 0.248596 55.845 9.37693e-08 
25 1 0.285716 0.178519 0.458753 55.845 2.39629e-08 
26 1 0.321507 0.21427 0.458883 55.845 -3.58973e-07 
31 1 0.321519 0.142832 0.458852 55.845 -9.0811e-07 
32 1 0.357161 0.178561 0.458939 55.845 -2.51811e-07 
99 1 0.285728 0.178599 0.374836 55.845 6.46986e-07 
100 1 0.285774 0.214291 0.416871 55.845 -1.08106e-07 
101 1 0.321537 0.214336 0.374711 55.845 4.01579e-07 
110 1 0.285726 0.142928 0.416926 55.845 1.47332e-07 
111 1 0.321452 0.142858 0.374687 55.845 3.2559e-07 
112 1 0.321507 0.178565 0.416909 55.845 -4.11438e-07 
113 1 0.357206 0.1786 0.374879 55.845 6.21193e-07 
114 1 0.357213 0.214329 0.416918 55.845 -2.53154e-07 
126 1 0.357196 0.14277 0.416913 55.845 -2.92048e-08 
201 1 0.285786 0.178606 0.290159 55.845 -5.09689e-07 
202 1 0.285687 0.214247 0.3324 55.845 1.52101e-07 
203 1 0.321508 0.214225 0.290172 55.845 -2.27549e-07 
212 1 0.285699 0.142934 0.332301 55.845 -4.49693e-07 
213 1 0.321448 0.142815 0.290148 55.845 -6.2066e-07 
214 1 0.321484 0.178506 0.332491 55.845 -1.14305e-07 