ITEM: TIMESTEP
100
ITEM: NUMBER OF ATOMS
5880
ITEM: BOX BOUNDS pp pp ff
-27.9832 27.9832
-27.9832 27.9832
0 34.092
ITEM: ATOMS id type xs ys zs mass q 
259 1 -1.15416e-05 0.107179 0.208245 55.845 1.17448e-07 
267 1 -3.32477e-05 0.0357976 0.208334 55.845 2.71672e-07 
269 1 0.0356391 0.0714573 0.208333 55.845 3.88976e-07 
271 1 0.0714373 0.107136 0.208209 55.845 2.17417e-07 
279 1 0.0356876 -1.28063e-05 0.208221 55.845 2.89664e-07 
281 1 0.0714257 0.0356965 0.208243 55.845 3.97833e-07 
283 1 0.107077 0.0715089 0.208286 55.845 2.01243e-07 
293 1 0.107212 3.25638e-05 0.208223 55.845 8.34234e-08 
361 1 3.98736e-05 0.107146 0.125141 55.845 -1.21433e-07 
369 1 -3.11861e-05 0.035756 0.125128 55.845 1.46535e-07 
370 1 -1.78877e-05 0.071396 0.166627 55.845 -5.73911e-08 
371 1 0.0357267 0.0714742 0.125008 55.845 5.14131e-08 
372 1 0.0356886 0.107163 0.166619 55.845 -1.32335e-08 
373 1 0.0714903 0.107156 0.125125 55.845 -4.45217e-08 
380 1 -1.24206e-05 4.33263e-05 0.166696 55.845 2.26769e-08 
381 1 0.0356422 2.62832e-05 0.125044 55.845 1.21328e-07 
382 1 0.035671 0.0357028 0.166618 55.845 1.96191e-07 
383 1 0.0713873 0.0357439 0.124923 55.845 7.52489e-08 
384 1 0.0713716 0.071469 0.166673 55.845 9.56223e-08 
385 1 0.107151 0.0714402 0.125131 55.845 1.2718e-08 
386 1 0.107178 0.107214 0.166677 55.845 -7.40407e-08 
394 1 0.0713721 1.27301e-05 0.166618 55.845 -1.44156e-08 
395 1 0.107216 8.65391e-05 0.125085 55.845 -1.90917e-07 
396 1 0.107189 0.0357467 0.166751 55.845 -4.95906e-08 
463 1 0 0.107143 0.0416667 55.845 3.6275e-07 
471 1 0 0.0357143 0.0416667 55.845 4.91626e-07 
472 1 1.27546e-07 0.0714141 0.0835454 55.845 1.47369e-07 
473 1 0.0357143 0.0714286 0.0416667 55.845 2.83821e-07 
474 1 0.0357132 0.107095 0.0833197 55.845 3.13794e-08 
475 1 0.0714286 0.107143 0.0416667 55.845 1.31132e-07 
482 1 -3.30928e-05 -3.29279e-05 0.0834319 55.845 2.27922e-07 
483 1 0.0357143 0 0.0416667 55.845 5.22245e-07 
484 1 0.0356774 0.0357476 0.0834865 55.845 2.84604e-07 
485 1 0.0714286 0.0357143 0.0416667 55.845 3.58806e-07 
486 1 0.0714886 0.0713856 0.0833948 55.845 3.99571e-08 
487 1 0.107143 0.0714286 0.0416667 55.845 2.56369e-07 
488 1 0.107203 0.107098 0.0834493 55.845 3.01226e-08 
496 1 0.0714675 5.47879e-05 0.0833954 55.845 1.62096e-07 
497 1 0.107143 0 0.0416667 55.845 3.01535e-07 
498 1 0.107115 0.0357327 0.0833476 55.845 1.22123e-07 
567 1 0 0.0714286 0 55.845 -3.3309e-07 
568 1 0.0357143 0.107143 0 55.845 -5.39951e-07 
572 1 0 0 0 55.845 -3.40004e-07 
573 1 0.0357143 0.0357143 0 55.845 -3.42035e-07 
574 1 0.0714286 0.0714286 0 55.845 -6.24823e-07 
575 1 0.107143 0.107143 0 55.845 -6.38422e-07 
579 1 0.0714286 0 0 55.845 -2.89519e-07 
580 1 0.107143 0.0357143 0 55.845 -4.17792e-07 
285 1 0.142863 0.107158 0.208267 55.845 1.5678e-07 
295 1 0.142855 0.0357345 0.208273 55.845 9.84448e-08 
297 1 0.178584 0.0714581 0.208218 55.845 3.52797e-07 
299 1 0.214182 0.107167 0.208191 55.845 2.21115e-07 
307 1 0.178601 -2.58759e-05 0.208249 55.845 1.04958e-07 
309 1 0.214308 0.0356691 0.20836 55.845 2.912e-07 
311 1 0.249883 0.0714655 0.208313 55.845 2.9763e-07 
387 1 0.142811 0.107185 0.125062 55.845 3.50433e-08 
397 1 0.142874 0.0357808 0.125062 55.845 8.70404e-08 
398 1 0.14292 0.0714933 0.166649 55.845 7.24539e-08 
399 1 0.178573 0.0714238 0.124972 55.845 3.12509e-07 
400 1 0.178638 0.107094 0.166606 55.845 4.82071e-08 
401 1 0.214259 0.107092 0.12508 55.845 -7.15359e-08 
408 1 0.142855 1.50754e-05 0.166664 55.845 -2.32498e-07 
409 1 0.178535 -5.06571e-06 0.125111 55.845 -6.38948e-08 
410 1 0.178574 0.0357211 0.166703 55.845 1.10652e-07 
411 1 0.214329 0.0357112 0.124992 55.845 1.7263e-07 
412 1 0.214299 0.0714035 0.166632 55.845 1.58223e-07 
413 1 0.250036 0.0714027 0.125096 55.845 4.66056e-09 
414 1 0.250009 0.107112 0.166721 55.845 -1.49167e-07 
424 1 0.214294 4.38592e-05 0.166751 55.845 -7.89638e-08 
426 1 0.249992 0.0357582 0.166776 55.845 -4.27001e-08 
489 1 0.142857 0.107143 0.0416667 55.845 3.0994e-07 
499 1 0.142857 0.0357143 0.0416667 55.845 5.28724e-07 
500 1 0.142813 0.0714026 0.0834709 55.845 3.38672e-07 
501 1 0.178571 0.0714286 0.0416667 55.845 6.44472e-07 
502 1 0.178546 0.107089 0.0835062 55.845 1.71847e-07 
503 1 0.214286 0.107143 0.0416667 55.845 2.35427e-07 
510 1 0.142832 -4.92233e-05 0.083298 55.845 -9.51299e-09 
511 1 0.178571 0 0.0416667 55.845 3.68433e-07 
512 1 0.17855 0.035704 0.0834624 55.845 4.25026e-07 
513 1 0.214286 0.0357143 0.0416667 55.845 5.33593e-07 
514 1 0.214289 0.0714507 0.0834112 55.845 3.07071e-07 
515 1 0.25 0.0714286 0.0416667 55.845 2.70626e-07 
516 1 0.25001 0.107164 0.0833378 55.845 -6.10443e-08 
526 1 0.214238 -7.40758e-05 0.0833689 55.845 1.14134e-07 
528 1 0.249996 0.0357208 0.0834466 55.845 7.09458e-08 
581 1 0.142857 0.0714286 0 55.845 -3.27095e-07 
582 1 0.178571 0.107143 0 55.845 -4.38437e-07 
586 1 0.142857 0 0 55.845 -4.02152e-07 
587 1 0.178571 0.0357143 0 55.845 -1.76397e-07 
588 1 0.214286 0.0714286 0 55.845 -3.30682e-07 
589 1 0.25 0.107143 0 55.845 -5.62544e-07 
594 1 0.214286 0 0 55.845 -4.13848e-07 
595 1 0.25 0.0357143 0 55.845 -4.78871e-07 
313 1 0.285737 0.107128 0.208171 55.845 1.65226e-07 
323 1 0.25001 2.13478e-05 0.208329 55.845 4.96512e-08 
325 1 0.285661 0.035702 0.208266 55.845 2.15635e-07 
327 1 0.321445 0.071452 0.208217 55.845 3.98488e-07 
329 1 0.35716 0.107166 0.208191 55.845 2.47231e-07 
337 1 0.321389 -1.81477e-05 0.20831 55.845 1.11263e-07 
339 1 0.357162 0.0356475 0.208282 55.845 1.87033e-07 
415 1 0.285747 0.107124 0.125053 55.845 6.36923e-09 
425 1 0.249977 -4.21664e-05 0.125088 55.845 -1.41627e-07 
427 1 0.285739 0.0357338 0.125074 55.845 -1.32186e-07 
428 1 0.285682 0.071463 0.166623 55.845 1.99442e-08 
429 1 0.321417 0.0714596 0.125 55.845 9.2003e-08 
430 1 0.32142 0.107187 0.166601 55.845 1.40011e-07 
431 1 0.357157 0.107203 0.124995 55.845 9.59242e-08 
439 1 0.321383 2.69383e-05 0.125084 55.845 -1.0036e-07 
440 1 0.321422 0.0356929 0.166767 55.845 -7.40023e-08 
441 1 0.357106 0.0357517 0.125139 55.845 -1.00201e-07 
442 1 0.357158 0.0713926 0.166567 55.845 3.82502e-08 
517 1 0.285714 0.107143 0.0416667 55.845 3.44481e-07 
527 1 0.25 0 0.0416667 55.845 2.69862e-07 
529 1 0.285714 0.0357143 0.0416667 55.845 2.18166e-07 
530 1 0.285795 0.0713843 0.0833754 55.845 8.26735e-08 
531 1 0.321429 0.0714286 0.0416667 55.845 4.3417e-07 
532 1 0.321434 0.107124 0.0834269 55.845 3.60623e-07 
533 1 0.357143 0.107143 0.0416667 55.845 5.28328e-07 
603 1 0.357143 0.0714286 0 55.845 -2.30495e-07 
541 1 0.321429 0 0.0416667 55.845 3.50568e-07 
542 1 0.321417 0.0357518 0.0833901 55.845 3.61027e-08 
543 1 0.357143 0.0357143 0.0416667 55.845 3.50997e-07 
544 1 0.357108 0.0714833 0.0834133 55.845 2.27704e-07 
602 1 0.321429 0.0357143 0 55.845 -4.24966e-07 
596 1 0.285714 0.0714286 0 55.845 -4.79821e-07 
597 1 0.321429 0.107143 0 55.845 -2.73467e-07 
612 1 0.464286 0.0357143 0 55.845 -4.5256e-07 
611 1 0.428571 0 0 55.845 -5.75276e-07 
610 1 0.464286 0.107143 0 55.845 -3.88366e-08 
609 1 0.428571 0.0714286 0 55.845 -1.87927e-07 
608 1 0.392857 0.0357143 0 55.845 -4.07268e-07 
341 1 0.392805 0.0713369 0.208301 55.845 2.02061e-07 
343 1 0.428585 0.10708 0.208229 55.845 1.78995e-07 
348 1 0.392817 1.58721e-05 0.20839 55.845 1.06728e-07 
350 1 0.428638 0.0357371 0.208233 55.845 2.24531e-07 
352 1 0.464289 0.0713298 0.208257 55.845 3.85665e-07 
355 1 0.464283 -5.07541e-05 0.208183 55.845 3.07831e-07 
443 1 0.392888 0.0714328 0.125072 55.845 -6.98465e-08 
444 1 0.392884 0.107112 0.166663 55.845 -1.45112e-07 
445 1 0.428606 0.107209 0.125082 55.845 -9.47062e-08 
604 1 0.392857 0.107143 0 55.845 -2.42801e-07 
450 1 0.392867 2.57401e-05 0.125156 55.845 -1.33431e-07 
451 1 0.392895 0.0357126 0.166652 55.845 -1.74055e-07 
452 1 0.428592 0.0357046 0.125152 55.845 -1.22927e-07 
453 1 0.428604 0.0714205 0.166734 55.845 -5.87901e-08 
454 1 0.464266 0.0714208 0.125081 55.845 7.42468e-08 
455 1 0.464322 0.1071 0.166733 55.845 5.09228e-08 
456 1 0.428559 8.70056e-06 0.166595 55.845 -3.15141e-08 
457 1 0.46434 3.4891e-05 0.125096 55.845 2.37518e-08 
458 1 0.464303 0.0357447 0.166721 55.845 -6.9363e-09 
545 1 0.392857 0.0714286 0.0416667 55.845 4.81231e-07 
546 1 0.392928 0.107174 0.0833488 55.845 1.13802e-07 
547 1 0.428571 0.107143 0.0416667 55.845 5.38701e-07 
552 1 0.392857 0 0.0416667 55.845 2.17617e-07 
553 1 0.392828 0.0356078 0.0835261 55.845 1.17822e-09 
554 1 0.428571 0.0357143 0.0416667 55.845 2.74188e-07 
555 1 0.428606 0.0713674 0.0834836 55.845 1.72902e-07 
556 1 0.464286 0.0714286 0.0416667 55.845 5.29766e-07 
557 1 0.464291 0.10716 0.0834514 55.845 3.10898e-07 
558 1 0.428597 -4.01997e-07 0.0833783 55.845 -1.17841e-08 
559 1 0.464286 0 0.0416667 55.845 2.39081e-07 
560 1 0.464302 0.0356319 0.0833816 55.845 4.0002e-08 
255 1 -3.70256e-05 0.178601 0.208215 55.845 3.00526e-07 
257 1 0.0356651 0.214323 0.208314 55.845 3.91971e-07 
261 1 0.0357548 0.142816 0.208133 55.845 2.96513e-07 
263 1 0.0714511 0.178564 0.208262 55.845 2.7942e-07 
265 1 0.1071 0.214337 0.208213 55.845 1.51958e-07 
273 1 0.107149 0.142851 0.208095 55.845 8.19608e-08 
357 1 2.70929e-05 0.178623 0.124967 55.845 -7.30009e-09 
358 1 -6.66246e-05 0.214375 0.166651 55.845 -4.86205e-08 
359 1 0.0357097 0.21432 0.125003 55.845 1.72624e-07 
360 1 0.0356856 0.249994 0.16683 55.845 4.62794e-08 
362 1 3.03254e-05 0.142869 0.166554 55.845 -8.91927e-08 
363 1 0.0357664 0.142811 0.124996 55.845 8.84518e-08 
364 1 0.0356702 0.178543 0.16662 55.845 1.90852e-07 
365 1 0.0714217 0.178605 0.125051 55.845 2.69294e-07 
366 1 0.0714435 0.214344 0.166734 55.845 1.31854e-07 
367 1 0.107115 0.214316 0.125021 55.845 3.31458e-08 
368 1 0.107156 0.250072 0.166835 55.845 -1.2331e-07 
374 1 0.0714559 0.142885 0.166673 55.845 4.93594e-08 
375 1 0.107167 0.142865 0.125026 55.845 7.27489e-09 
376 1 0.107137 0.178584 0.166741 55.845 2.27373e-08 
459 1 0 0.178571 0.0416667 55.845 4.53297e-07 
460 1 2.74927e-05 0.214247 0.0834981 55.845 1.47238e-07 
461 1 0.0357143 0.214286 0.0416667 55.845 4.82098e-07 
462 1 0.035782 0.250031 0.0834242 55.845 8.60786e-08 
464 1 4.57623e-05 0.142888 0.0833737 55.845 1.05014e-07 
465 1 0.0357143 0.142857 0.0416667 55.845 4.03773e-07 
466 1 0.0357456 0.178583 0.0834661 55.845 3.70693e-07 
467 1 0.0714286 0.178571 0.0416667 55.845 5.34735e-07 
468 1 0.071447 0.214351 0.0833713 55.845 2.54235e-07 
469 1 0.107143 0.214286 0.0416667 55.845 3.85159e-07 
470 1 0.10703 0.250039 0.0834946 55.845 -6.13799e-08 
476 1 0.0714574 0.142856 0.0834318 55.845 1.9026e-07 
477 1 0.107143 0.142857 0.0416667 55.845 2.72134e-07 
478 1 0.107169 0.178595 0.0833994 55.845 2.79557e-07 
561 1 0 0.214286 0 55.845 -3.08197e-07 
562 1 0.0357143 0.25 0 55.845 -4.84746e-07 
563 1 0 0.142857 0 55.845 -3.04849e-07 
564 1 0.0357143 0.178571 0 55.845 -2.53815e-07 
565 1 0.0714286 0.214286 0 55.845 -3.96043e-07 
566 1 0.107143 0.25 0 55.845 -5.90023e-07 
569 1 0.0714286 0.142857 0 55.845 -4.89327e-07 
570 1 0.107143 0.178571 0 55.845 -3.52977e-07 
275 1 0.142875 0.178658 0.208187 55.845 2.44272e-07 
277 1 0.178598 0.214364 0.20821 55.845 3.53813e-07 
287 1 0.178522 0.142914 0.208175 55.845 2.75711e-07 
289 1 0.214205 0.178593 0.208241 55.845 2.71992e-07 
291 1 0.25001 0.214315 0.2083 55.845 2.20664e-07 
301 1 0.249933 0.142824 0.208263 55.845 -3.9537e-08 
377 1 0.142856 0.178584 0.125052 55.845 3.59444e-08 
378 1 0.142854 0.214332 0.166646 55.845 -1.35486e-08 
379 1 0.178618 0.21425 0.124962 55.845 4.32132e-08 
388 1 0.14287 0.142862 0.1666 55.845 -7.46015e-08 
389 1 0.17861 0.142842 0.125026 55.845 -1.14232e-07 
390 1 0.178558 0.178563 0.166648 55.845 -1.50982e-08 
391 1 0.214271 0.17859 0.125112 55.845 -1.10016e-07 
392 1 0.214272 0.21436 0.166673 55.845 -1.22718e-08 
393 1 0.249929 0.214328 0.125031 55.845 1.66999e-08 
402 1 0.214285 0.142876 0.166608 55.845 -2.12255e-07 
403 1 0.249982 0.142869 0.125024 55.845 -2.34792e-07 
404 1 0.249965 0.178589 0.166665 55.845 -1.46278e-07 
479 1 0.142857 0.178571 0.0416667 55.845 4.36642e-07 
480 1 0.142809 0.21431 0.0834866 55.845 2.16803e-07 
481 1 0.178571 0.214286 0.0416667 55.845 6.12695e-07 
490 1 0.142872 0.142864 0.0834653 55.845 7.78904e-08 
491 1 0.178571 0.142857 0.0416667 55.845 2.36859e-07 
492 1 0.178525 0.178606 0.0834858 55.845 1.48152e-07 
493 1 0.214286 0.178571 0.0416667 55.845 4.00115e-07 
494 1 0.214217 0.214205 0.083423 55.845 2.67195e-07 
495 1 0.25 0.214286 0.0416667 55.845 5.29353e-07 
504 1 0.214279 0.142892 0.0833818 55.845 -1.25094e-07 
505 1 0.25 0.142857 0.0416667 55.845 2.14815e-07 
506 1 0.250005 0.178499 0.0834093 55.845 1.21712e-07 
571 1 0.142857 0.214286 0 55.845 -2.62537e-07 
576 1 0.142857 0.142857 0 55.845 -4.97246e-07 
577 1 0.178571 0.178571 0 55.845 -2.88033e-07 
578 1 0.214286 0.214286 0 55.845 -1.0519e-07 
583 1 0.214286 0.142857 0 55.845 -5.31987e-07 
584 1 0.25 0.178571 0 55.845 -3.12162e-07 
303 1 0.285702 0.178562 0.208265 55.845 1.70117e-07 
305 1 0.321462 0.214196 0.208109 55.845 4.64317e-07 
315 1 0.321449 0.142911 0.208241 55.845 2.02481e-07 
317 1 0.357165 0.178532 0.2083 55.845 3.39267e-07 
405 1 0.285802 0.178566 0.124953 55.845 1.52982e-07 
406 1 0.285665 0.214276 0.166684 55.845 1.31435e-07 
407 1 0.321443 0.21425 0.124912 55.845 2.56755e-07 
416 1 0.285707 0.142907 0.166657 55.845 -8.44257e-08 
417 1 0.321449 0.14286 0.124885 55.845 2.27847e-07 
418 1 0.321492 0.178508 0.166621 55.845 2.32097e-07 
419 1 0.357141 0.178615 0.125021 55.845 9.21674e-08 
420 1 0.357132 0.214204 0.166577 55.845 2.52057e-07 
432 1 0.357196 0.142887 0.166676 55.845 2.17588e-08 
507 1 0.285714 0.178571 0.0416667 55.845 4.82069e-07 
508 1 0.285636 0.214223 0.0834634 55.845 2.63151e-07 
509 1 0.321429 0.214286 0.0416667 55.845 3.16526e-07 
518 1 0.285652 0.142854 0.0832836 55.845 2.14765e-07 
519 1 0.321429 0.142857 0.0416667 55.845 4.91629e-07 
520 1 0.321446 0.178535 0.0833854 55.845 3.32412e-07 
521 1 0.357143 0.178571 0.0416667 55.845 1.50635e-07 
522 1 0.35714 0.214264 0.0832778 55.845 1.2796e-07 
534 1 0.357144 0.142884 0.0832838 55.845 1.40756e-07 
585 1 0.285714 0.214286 0 55.845 -3.85883e-07 
590 1 0.285714 0.142857 0 55.845 -3.81727e-07 
591 1 0.321429 0.178571 0 55.845 -4.64568e-07 
592 1 0.357143 0.214286 0 55.845 -6.55241e-07 
598 1 0.357143 0.142857 0 55.845 -4.7016e-07 
319 1 0.392901 0.214307 0.208255 55.845 3.74028e-07 
321 1 0.428493 0.24996 0.20815 55.845 2.61808e-07 
331 1 0.392929 0.14292 0.20829 55.845 8.15822e-08 
333 1 0.428577 0.178633 0.208264 55.845 2.29637e-07 
335 1 0.464271 0.214244 0.208195 55.845 3.65856e-07 
345 1 0.464322 0.14284 0.208222 55.845 2.02843e-07 
606 1 0.464286 0.178571 0 55.845 -2.43642e-07 
421 1 0.392827 0.214281 0.124971 55.845 2.19983e-08 
422 1 0.392815 0.250019 0.166615 55.845 5.33857e-08 
423 1 0.428572 0.249971 0.124975 55.845 1.56215e-07 
433 1 0.392887 0.14291 0.124955 55.845 -2.58373e-07 
434 1 0.392886 0.178601 0.166625 55.845 -1.05346e-07 
435 1 0.428585 0.178638 0.125031 55.845 -2.40619e-07 
436 1 0.428551 0.214298 0.166655 55.845 4.55558e-08 
437 1 0.464245 0.214268 0.125056 55.845 3.0883e-08 
605 1 0.428571 0.142857 0 55.845 -3.52709e-07 
446 1 0.428586 0.142861 0.166728 55.845 -2.4693e-07 
447 1 0.464322 0.142846 0.125101 55.845 -4.78945e-08 
448 1 0.46422 0.178488 0.166633 55.845 -1.11587e-07 
523 1 0.392857 0.214286 0.0416667 55.845 1.82032e-07 
524 1 0.392888 0.250015 0.0832904 55.845 2.89857e-07 
525 1 0.428571 0.25 0.0416667 55.845 5.98061e-07 
535 1 0.392857 0.142857 0.0416667 55.845 1.61008e-07 
536 1 0.392884 0.178622 0.0833832 55.845 -1.97041e-07 
537 1 0.428571 0.178571 0.0416667 55.845 1.60819e-07 
538 1 0.428654 0.214302 0.0834257 55.845 1.07264e-07 
539 1 0.464286 0.214286 0.0416667 55.845 4.78695e-07 
548 1 0.428623 0.142928 0.0834634 55.845 -6.2864e-08 
549 1 0.464286 0.142857 0.0416667 55.845 5.77598e-07 
550 1 0.464284 0.178645 0.0833726 55.845 1.06109e-07 
593 1 0.392857 0.25 0 55.845 -2.99851e-07 
599 1 0.392857 0.178571 0 55.845 -7.34005e-07 
600 1 0.428571 0.214286 0 55.845 -4.10379e-07 
3 1 -8.68626e-06 0.107197 0.459675 55.845 -2.64352e-07 
7 1 -3.29689e-05 0.0356923 0.459564 55.845 5.34899e-08 
8 1 0.0356999 0.0714102 0.459485 55.845 -4.51097e-08 
9 1 0.071471 0.107069 0.459617 55.845 -1.49833e-07 
13 1 0.0357207 2.70003e-05 0.459489 55.845 1.34338e-08 
14 1 0.0714655 0.0357417 0.45964 55.845 -4.97917e-08 
15 1 0.107161 0.0714221 0.459683 55.845 -1.10538e-07 
20 1 0.107089 1.15846e-05 0.459737 55.845 -3.365e-07 
55 1 -4.90973e-05 0.107205 0.37451 55.845 1.4793e-07 
63 1 -1.85733e-06 0.0356454 0.374423 55.845 3.31282e-07 
64 1 -4.38371e-05 0.0714926 0.417068 55.845 -1.35287e-07 
65 1 0.035753 0.0713847 0.37447 55.845 4.9121e-07 
66 1 0.0356665 0.107108 0.417159 55.845 -6.78337e-08 
67 1 0.071398 0.107085 0.374595 55.845 4.16711e-07 
74 1 4.19299e-06 -4.48583e-05 0.416883 55.845 1.08586e-08 
75 1 0.0357274 -2.22579e-05 0.374444 55.845 3.38697e-07 
76 1 0.0356544 0.0356736 0.417038 55.845 1.54607e-07 
77 1 0.071437 0.0356991 0.374451 55.845 4.76774e-07 
78 1 0.071386 0.0713935 0.417147 55.845 8.57423e-08 
79 1 0.107095 0.0714772 0.374472 55.845 3.70974e-07 
80 1 0.107124 0.10706 0.417153 55.845 -4.72003e-08 
88 1 0.0714735 2.62788e-05 0.417055 55.845 -1.38218e-07 
89 1 0.107114 1.86333e-05 0.37454 55.845 1.03598e-07 
90 1 0.107082 0.0356906 0.41716 55.845 -9.49839e-08 
157 1 -3.88661e-05 0.107162 0.291181 55.845 -6.01545e-07 
165 1 -5.97594e-05 0.0356945 0.291239 55.845 -5.75691e-07 
166 1 -5.76698e-07 0.0713884 0.332604 55.845 -1.38073e-07 
167 1 0.035583 0.0714116 0.291203 55.845 -3.4083e-07 
168 1 0.0356325 0.107168 0.33261 55.845 2.61828e-08 
169 1 0.0713516 0.107116 0.291178 55.845 -5.19217e-07 
176 1 2.01254e-05 -3.60022e-05 0.332608 55.845 -1.57632e-07 
177 1 0.035749 -5.93094e-06 0.291125 55.845 -5.12438e-07 
178 1 0.0357469 0.0358 0.332612 55.845 1.53704e-07 
179 1 0.0713569 0.0357552 0.29095 55.845 -3.30577e-07 
180 1 0.0714355 0.0714205 0.332502 55.845 1.90598e-07 
181 1 0.107087 0.0714776 0.291107 55.845 -5.8281e-07 
182 1 0.107182 0.107176 0.332585 55.845 -1.27961e-07 
190 1 0.0713936 2.15832e-05 0.332564 55.845 -1.70766e-08 
191 1 0.107096 6.59077e-05 0.291011 55.845 -6.08412e-07 
192 1 0.107112 0.0357463 0.332484 55.845 -7.78681e-08 
268 1 -9.07785e-05 0.0714223 0.249748 55.845 -4.68643e-08 
270 1 0.0356903 0.107148 0.249859 55.845 6.86194e-08 
278 1 -3.72021e-06 5.18666e-05 0.249655 55.845 -1.18709e-07 
280 1 0.0356818 0.0357671 0.249751 55.845 2.14387e-07 
282 1 0.0713186 0.0714242 0.249741 55.845 1.79903e-07 
284 1 0.107065 0.107191 0.249617 55.845 -1.64609e-07 
292 1 0.0713867 8.49803e-06 0.249672 55.845 9.17956e-08 
294 1 0.107171 0.0356945 0.24965 55.845 -5.47521e-08 
16 1 0.142853 0.107121 0.459527 55.845 -1.41325e-07 
21 1 0.142807 0.0357706 0.459596 55.845 -4.32176e-08 
22 1 0.178576 0.0714655 0.4596 55.845 1.20827e-07 
23 1 0.214317 0.107088 0.459649 55.845 -2.67617e-07 
27 1 0.178591 1.73906e-05 0.45969 55.845 -1.20723e-07 
28 1 0.214259 0.0357566 0.459675 55.845 7.68816e-09 
29 1 0.249965 0.0713204 0.459716 55.845 -1.80517e-07 
81 1 0.142863 0.107116 0.374559 55.845 2.97427e-07 
91 1 0.142818 0.0357064 0.374574 55.845 2.41845e-07 
92 1 0.142825 0.0714306 0.41706 55.845 3.68078e-08 
93 1 0.17853 0.0714939 0.374385 55.845 3.93438e-07 
94 1 0.178639 0.107143 0.417081 55.845 -7.78175e-08 
95 1 0.214342 0.10713 0.374465 55.845 2.67924e-07 
102 1 0.142823 4.51904e-05 0.417044 55.845 -2.77006e-07 
103 1 0.178519 -4.96969e-05 0.374392 55.845 2.92045e-07 
104 1 0.178501 0.0357014 0.417036 55.845 8.88596e-08 
105 1 0.214212 0.0356982 0.374551 55.845 3.68775e-07 
106 1 0.214278 0.0714365 0.417085 55.845 7.5445e-09 
107 1 0.250013 0.0714684 0.374603 55.845 3.27074e-07 
108 1 0.250097 0.107146 0.417109 55.845 -2.58914e-07 
118 1 0.214245 4.39452e-05 0.416984 55.845 -6.13475e-08 
120 1 0.249954 0.0357246 0.416968 55.845 -1.65609e-07 
183 1 0.142839 0.107211 0.29118 55.845 -6.38156e-07 
193 1 0.142842 0.0357352 0.291023 55.845 -7.23683e-07 
194 1 0.142832 0.0714144 0.3325 55.845 -1.09639e-07 
195 1 0.17852 0.0714876 0.290961 55.845 -5.46075e-07 
196 1 0.178579 0.10723 0.332523 55.845 2.00593e-08 
197 1 0.214248 0.107179 0.290911 55.845 -4.67858e-07 
204 1 0.142848 1.06117e-05 0.332474 55.845 -2.25976e-07 
205 1 0.178542 -1.44534e-05 0.291 55.845 -5.9376e-07 
206 1 0.178525 0.0356876 0.332573 55.845 -7.85553e-08 
207 1 0.214337 0.0357381 0.291239 55.845 -5.32653e-07 
208 1 0.214253 0.071411 0.332534 55.845 4.47646e-08 
209 1 0.249984 0.0714234 0.291059 55.845 -4.38383e-07 
210 1 0.24995 0.107123 0.332566 55.845 -1.44421e-07 
220 1 0.214276 5.48523e-06 0.332616 55.845 -5.36591e-08 
222 1 0.24998 0.0357708 0.332601 55.845 -3.88282e-08 
296 1 0.142762 0.0715008 0.249706 55.845 -1.1533e-07 
298 1 0.178546 0.107121 0.249743 55.845 6.62854e-08 
306 1 0.142888 4.12625e-05 0.249722 55.845 -1.61828e-07 
308 1 0.178575 0.0357021 0.24981 55.845 -7.42028e-08 
310 1 0.21426 0.0714323 0.24968 55.845 1.241e-07 
312 1 0.249967 0.10719 0.249667 55.845 -8.81964e-08 
322 1 0.214235 5.19588e-05 0.249882 55.845 -7.35372e-08 
324 1 0.250021 0.0357196 0.249802 55.845 1.15415e-08 
30 1 0.285726 0.107092 0.459604 55.845 -8.02232e-08 
35 1 0.249992 -1.45657e-05 0.459584 55.845 -3.04342e-07 
36 1 0.28569 0.0356821 0.459665 55.845 -3.0088e-07 
37 1 0.321423 0.071412 0.459769 55.845 1.22829e-08 
38 1 0.357163 0.107147 0.459723 55.845 1.30287e-08 
42 1 0.321452 -7.72176e-06 0.45961 55.845 -2.53871e-07 
43 1 0.357204 0.03569 0.4596 55.845 -1.88797e-07 
109 1 0.285695 0.107086 0.374521 55.845 3.00486e-07 
119 1 0.250048 7.69282e-05 0.374525 55.845 1.65208e-07 
121 1 0.285729 0.0357481 0.374483 55.845 2.67484e-07 
122 1 0.285709 0.0714527 0.417129 55.845 -9.11746e-09 
123 1 0.321366 0.0714532 0.374574 55.845 5.57137e-07 
124 1 0.32136 0.107107 0.417137 55.845 1.56186e-07 
125 1 0.357105 0.107166 0.374369 55.845 3.92388e-07 
133 1 0.321382 -7.78599e-05 0.37454 55.845 1.27988e-07 
134 1 0.321409 0.0356698 0.417196 55.845 -8.95592e-08 
135 1 0.357096 0.0356708 0.37449 55.845 3.0434e-07 
136 1 0.357122 0.0714515 0.417016 55.845 7.51377e-08 
211 1 0.285696 0.107109 0.291003 55.845 -6.19183e-07 
221 1 0.25001 -3.71843e-05 0.291091 55.845 -6.73715e-07 
223 1 0.285738 0.0357098 0.290955 55.845 -4.58587e-07 
224 1 0.285713 0.0714552 0.332539 55.845 1.2352e-07 
225 1 0.321478 0.0713971 0.291134 55.845 -2.66961e-07 
226 1 0.321398 0.107033 0.332407 55.845 4.19593e-08 
227 1 0.357189 0.107134 0.29105 55.845 -5.19344e-07 
235 1 0.321444 -9.22899e-05 0.291096 55.845 -6.39004e-07 
236 1 0.321432 0.0356892 0.332556 55.845 6.11732e-08 
237 1 0.357154 0.0356549 0.291038 55.845 -4.76871e-07 
238 1 0.357088 0.0714082 0.332686 55.845 1.64406e-07 
326 1 0.285703 0.0714068 0.249542 55.845 1.49435e-07 
328 1 0.321442 0.10718 0.249717 55.845 4.57688e-08 
338 1 0.321508 0.0356734 0.249831 55.845 1.07178e-07 
340 1 0.357151 0.0714781 0.249754 55.845 1.65626e-07 
44 1 0.392795 0.0713835 0.459589 55.845 -1.39152e-07 
45 1 0.428577 0.107084 0.459636 55.845 -1.71293e-07 
47 1 0.392881 -2.95067e-05 0.459696 55.845 -2.46517e-07 
48 1 0.428591 0.0357384 0.459503 55.845 -2.33837e-07 
49 1 0.464358 0.0714863 0.459531 55.845 -5.35691e-08 
50 1 0.464326 -2.98696e-05 0.459653 55.845 -2.70823e-08 
137 1 0.392895 0.071409 0.374568 55.845 2.82361e-07 
138 1 0.392823 0.107156 0.417093 55.845 -1.8521e-07 
139 1 0.428476 0.10722 0.374557 55.845 1.64513e-07 
144 1 0.392849 4.35352e-05 0.374499 55.845 1.71549e-07 
145 1 0.392869 0.0357204 0.417115 55.845 -2.16589e-07 
146 1 0.428596 0.0357261 0.374597 55.845 2.52937e-07 
147 1 0.428557 0.0714474 0.417214 55.845 -1.64044e-07 
148 1 0.464279 0.0714443 0.374507 55.845 3.08534e-07 
149 1 0.464303 0.107141 0.416954 55.845 -9.51276e-08 
150 1 0.428615 7.71963e-06 0.417114 55.845 -8.11013e-08 
151 1 0.46433 -4.57154e-05 0.374564 55.845 4.35965e-07 
152 1 0.464301 0.0356948 0.41708 55.845 -7.32801e-08 
239 1 0.392854 0.0713504 0.291066 55.845 -4.79537e-07 
240 1 0.392844 0.107131 0.33253 55.845 -1.10624e-07 
241 1 0.428541 0.10709 0.291079 55.845 -5.18986e-07 
246 1 0.392911 -5.75755e-05 0.29119 55.845 -6.85698e-07 
247 1 0.39288 0.0356562 0.332615 55.845 -1.15296e-07 
248 1 0.428568 0.0356868 0.291111 55.845 -4.96524e-07 
249 1 0.428557 0.0714687 0.332577 55.845 -3.87585e-08 
250 1 0.464298 0.0713365 0.291002 55.845 -3.64229e-07 
251 1 0.4643 0.107144 0.332551 55.845 1.5515e-08 
252 1 0.428619 -5.32006e-05 0.332715 55.845 -9.57852e-08 
253 1 0.464305 2.06242e-05 0.291113 55.845 -4.75746e-07 
254 1 0.464244 0.0356918 0.33256 55.845 2.45533e-09 
342 1 0.392907 0.107149 0.249769 55.845 -4.55182e-08 
349 1 0.392858 0.035712 0.249747 55.845 -3.48988e-08 
351 1 0.428583 0.0713584 0.249791 55.845 7.85593e-08 
353 1 0.464342 0.10711 0.249615 55.845 1.82323e-07 
354 1 0.428597 2.03061e-05 0.249729 55.845 -1.58647e-08 
356 1 0.464319 0.0357001 0.249736 55.845 1.16181e-07 
1 1 -4.43603e-06 0.178537 0.459626 55.845 -1.50895e-07 
2 1 0.0357463 0.214256 0.459466 55.845 1.70648e-08 
4 1 0.0356907 0.142817 0.45959 55.845 -7.29676e-08 
5 1 0.0714645 0.178455 0.45967 55.845 1.03751e-07 
6 1 0.107204 0.214212 0.459483 55.845 -1.0672e-07 
10 1 0.107154 0.142813 0.459527 55.845 -8.31787e-08 
51 1 5.97975e-05 0.178572 0.374577 55.845 3.90309e-07 
52 1 -1.52055e-05 0.214325 0.417018 55.845 -6.01882e-08 
53 1 0.0358095 0.21433 0.374406 55.845 4.18902e-07 
54 1 0.0357803 0.249968 0.417088 55.845 -1.99438e-08 
56 1 -2.81348e-05 0.142951 0.417124 55.845 -2.02164e-07 
57 1 0.0357089 0.142826 0.374587 55.845 3.85503e-07 
58 1 0.0356609 0.178561 0.417057 55.845 1.15845e-07 
59 1 0.0714283 0.17849 0.374514 55.845 3.30783e-07 
60 1 0.0714127 0.214229 0.417007 55.845 1.76549e-08 
61 1 0.107163 0.214297 0.374425 55.845 1.73285e-07 
62 1 0.107162 0.250039 0.41712 55.845 -2.5032e-07 
68 1 0.0714472 0.142842 0.417072 55.845 3.21985e-08 
69 1 0.10711 0.142832 0.374466 55.845 2.26579e-07 
70 1 0.107151 0.178469 0.417102 55.845 -4.09038e-08 
153 1 -3.38522e-05 0.178599 0.291096 55.845 -3.55401e-07 
154 1 5.87655e-05 0.214238 0.332541 55.845 4.84567e-08 
155 1 0.0356891 0.214361 0.291125 55.845 -4.33795e-07 
156 1 0.0357 0.250027 0.33262 55.845 3.43939e-08 
158 1 8.20148e-05 0.142893 0.332567 55.845 -1.07859e-08 
159 1 0.0356996 0.14288 0.291055 55.845 -4.795e-07 
160 1 0.0357453 0.178581 0.332463 55.845 7.3795e-08 
161 1 0.0714465 0.178613 0.291145 55.845 -6.47396e-07 
162 1 0.07142 0.214234 0.332509 55.845 -1.19428e-07 
163 1 0.107124 0.214305 0.291006 55.845 -6.99936e-07 
164 1 0.107155 0.250041 0.332582 55.845 -1.60113e-07 
170 1 0.0714488 0.142842 0.332459 55.845 -1.09606e-07 
171 1 0.10719 0.142846 0.291068 55.845 -7.79697e-07 
172 1 0.107153 0.178493 0.332578 55.845 -2.19331e-07 
256 1 -7.95639e-05 0.214363 0.249747 55.845 5.38995e-08 
258 1 0.0357551 0.250058 0.249775 55.845 1.12586e-07 
260 1 3.27477e-05 0.142894 0.249603 55.845 7.12812e-08 
262 1 0.0357227 0.178552 0.24957 55.845 1.37679e-07 
264 1 0.0713909 0.214353 0.249671 55.845 -1.78587e-09 
266 1 0.107177 0.249957 0.249772 55.845 -7.35619e-08 
272 1 0.0714568 0.142867 0.249652 55.845 -8.8671e-08 
274 1 0.107109 0.178581 0.24964 55.845 -1.69488e-07 
11 1 0.142861 0.178537 0.459587 55.845 -1.37158e-07 
12 1 0.178609 0.214304 0.459501 55.845 -1.29831e-07 
17 1 0.178672 0.142807 0.459444 55.845 -3.24576e-07 
18 1 0.21433 0.17859 0.459685 55.845 -2.80516e-07 
19 1 0.250023 0.214301 0.459735 55.845 -8.14216e-08 
24 1 0.250027 0.142816 0.459625 55.845 -3.46558e-07 
71 1 0.142857 0.178588 0.374531 55.845 3.14525e-07 
72 1 0.142827 0.214167 0.417054 55.845 -1.20599e-07 
73 1 0.178497 0.214262 0.374464 55.845 4.80193e-07 
82 1 0.142885 0.142778 0.417049 55.845 -1.14175e-07 
83 1 0.178614 0.14281 0.374548 55.845 3.634e-07 
84 1 0.178553 0.178515 0.417082 55.845 -5.55102e-08 
85 1 0.214266 0.178609 0.374551 55.845 4.48772e-07 
86 1 0.214387 0.214243 0.417063 55.845 3.17029e-09 
87 1 0.250021 0.214262 0.374492 55.845 4.08391e-07 
96 1 0.214369 0.142842 0.417041 55.845 -2.75791e-07 
97 1 0.250044 0.142831 0.374498 55.845 1.16308e-07 
98 1 0.250033 0.178465 0.41703 55.845 -1.15816e-07 
173 1 0.142915 0.178618 0.291147 55.845 -4.79625e-07 
174 1 0.142836 0.214303 0.332585 55.845 -2.49979e-08 
175 1 0.178515 0.214325 0.29103 55.845 -2.03068e-07 
184 1 0.142857 0.142816 0.33249 55.845 -7.25029e-08 
185 1 0.178548 0.142896 0.291058 55.845 -3.24657e-07 
186 1 0.178482 0.178563 0.332673 55.845 3.21416e-07 
187 1 0.214214 0.178639 0.291067 55.845 -2.07902e-07 
188 1 0.214273 0.214307 0.332577 55.845 2.75847e-07 
189 1 0.250042 0.214284 0.291112 55.845 -4.08288e-07 
198 1 0.214274 0.142829 0.332602 55.845 3.63989e-08 
199 1 0.249951 0.142874 0.290888 55.845 -7.26796e-07 
200 1 0.249935 0.178567 0.332669 55.845 -4.51157e-08 
276 1 0.142864 0.214297 0.249673 55.845 3.8465e-08 
286 1 0.142827 0.142881 0.249628 55.845 -6.06602e-08 
288 1 0.178529 0.178691 0.249734 55.845 3.05373e-07 
290 1 0.214254 0.214388 0.249771 55.845 2.37169e-07 
300 1 0.21426 0.142874 0.249653 55.845 6.96973e-08 
302 1 0.249929 0.178604 0.249621 55.845 -6.8561e-08 
25 1 0.285726 0.178576 0.459715 55.845 1.01941e-08 
26 1 0.321496 0.214282 0.45965 55.845 7.7464e-08 
31 1 0.321399 0.142805 0.459609 55.845 6.49091e-08 
32 1 0.357042 0.178541 0.459587 55.845 -1.01751e-07 
99 1 0.285702 0.178477 0.3745 55.845 2.51684e-07 
100 1 0.285682 0.214147 0.41718 55.845 7.08202e-08 
101 1 0.321405 0.214269 0.374363 55.845 4.37195e-07 
110 1 0.285798 0.142833 0.417097 55.845 -1.01087e-07 
111 1 0.321383 0.142877 0.374458 55.845 2.66807e-07 
112 1 0.321451 0.178595 0.416969 55.845 9.76038e-08 
113 1 0.357162 0.178562 0.37449 55.845 2.87481e-07 
114 1 0.357114 0.214315 0.417063 55.845 7.17144e-08 
126 1 0.357128 0.142845 0.417085 55.845 -7.27308e-08 
201 1 0.285743 0.178538 0.291075 55.845 -7.48499e-07 
202 1 0.285702 0.214286 0.332522 55.845 -1.33974e-08 
203 1 0.321364 0.214276 0.290992 55.845 -4.86346e-07 
212 1 0.285689 0.142831 0.332593 55.845 -3.24365e-07 
213 1 0.321454 0.142848 0.291146 55.845 -7.85128e-07 
214 1 0.321481 0.17853 0.33256 55.845 -1.81919e-07 
215 1 0.357146 0.178546 0.291138 55.845 -5.95006e-07 
216 1 0.357137 0.214321 0.332544 55.845 3.25752e-09 