ITEM: TIMESTEP
9400
ITEM: NUMBER OF ATOMS
5880
ITEM: BOX BOUNDS pp pp ff
-28.0064 28.0064
-28.0064 28.0064
0 34.092
ITEM: ATOMS id type xs ys zs mass q 
259 1 -1.12834e-05 0.107103 0.207248 55.845 -5.5249e-07 
267 1 0.000127016 0.0355893 0.207424 55.845 -2.27831e-07 
269 1 0.0356774 0.0714312 0.207337 55.845 -5.18468e-07 
271 1 0.0713361 0.107145 0.207208 55.845 -1.02935e-06 
279 1 0.0357144 -6.87459e-05 0.20757 55.845 -2.62121e-07 
281 1 0.0715099 0.0356795 0.207326 55.845 -1.16137e-07 
283 1 0.107163 0.0714354 0.207368 55.845 -5.71654e-07 
293 1 0.107186 1.53135e-05 0.207395 55.845 -2.00496e-07 
361 1 -9.79083e-06 0.107101 0.124524 55.845 9.21076e-08 
369 1 6.81518e-05 0.0356713 0.124533 55.845 3.06491e-07 
370 1 0.000109357 0.0713418 0.165599 55.845 -9.05941e-08 
371 1 0.0357567 0.0713898 0.124459 55.845 1.42224e-07 
372 1 0.0358191 0.10717 0.165657 55.845 3.41942e-07 
373 1 0.0715019 0.107133 0.124514 55.845 -1.61343e-07 
380 1 7.6484e-05 1.74091e-05 0.165739 55.845 -1.40414e-07 
381 1 0.0357426 -0.000159748 0.124602 55.845 4.31127e-07 
382 1 0.0357965 0.0356567 0.165664 55.845 -5.34157e-07 
383 1 0.0714368 0.0357074 0.124423 55.845 3.99531e-07 
384 1 0.0713882 0.0713939 0.165598 55.845 1.43454e-07 
385 1 0.107117 0.071413 0.124585 55.845 9.66863e-08 
386 1 0.107123 0.107115 0.165474 55.845 5.69229e-07 
394 1 0.071455 -5.20506e-05 0.165681 55.845 -6.78178e-07 
395 1 0.107152 3.30989e-05 0.12461 55.845 7.06617e-07 
396 1 0.107179 0.0357223 0.165689 55.845 -5.42604e-07 
463 1 0 0.107143 0.0416667 55.845 -1.08629e-07 
471 1 0 0.0357143 0.0416667 55.845 -9.15019e-08 
472 1 3.74965e-05 0.0714117 0.0842638 55.845 3.13024e-07 
473 1 0.0357143 0.0714286 0.0416667 55.845 -1.2197e-07 
474 1 0.0356752 0.107039 0.0843197 55.845 3.85724e-07 
475 1 0.0714286 0.107143 0.0416667 55.845 6.9162e-07 
482 1 9.96022e-05 6.38191e-05 0.0845617 55.845 -3.14372e-07 
483 1 0.0357143 0 0.0416667 55.845 1.92713e-08 
484 1 0.0357773 0.0356463 0.0842466 55.845 1.14116e-07 
485 1 0.0714286 0.0357143 0.0416667 55.845 -4.28999e-07 
486 1 0.0715205 0.0714689 0.0844051 55.845 2.34462e-07 
487 1 0.107143 0.0714286 0.0416667 55.845 2.44302e-07 
488 1 0.107207 0.107095 0.0841983 55.845 -1.03263e-07 
496 1 0.0714076 1.52904e-05 0.0842298 55.845 8.43529e-08 
497 1 0.107143 0 0.0416667 55.845 -5.01933e-07 
498 1 0.107219 0.0357511 0.084353 55.845 4.28958e-07 
567 1 0 0.0714286 0 55.845 -1.49599e-07 
568 1 0.0357143 0.107143 0 55.845 -8.20279e-08 
572 1 0 0 0 55.845 1.11334e-07 
573 1 0.0357143 0.0357143 0 55.845 1.60233e-07 
574 1 0.0714286 0.0714286 0 55.845 -9.7284e-08 
575 1 0.107143 0.107143 0 55.845 -2.07521e-07 
579 1 0.0714286 0 0 55.845 2.6188e-07 
580 1 0.107143 0.0357143 0 55.845 3.52273e-07 
285 1 0.142867 0.107043 0.207489 55.845 -5.78746e-07 
295 1 0.142911 0.0356843 0.207516 55.845 -4.71346e-07 
297 1 0.178582 0.0714341 0.207578 55.845 -5.4019e-07 
299 1 0.214268 0.107107 0.207483 55.845 -2.23093e-07 
307 1 0.178608 -6.8632e-05 0.20748 55.845 -9.51992e-07 
309 1 0.214373 0.0356204 0.207488 55.845 -7.91563e-07 
311 1 0.249887 0.0714688 0.207419 55.845 -3.90777e-07 
387 1 0.142902 0.10706 0.124536 55.845 -8.11647e-08 
397 1 0.142726 0.0357348 0.124717 55.845 3.38566e-07 
398 1 0.142891 0.071321 0.165795 55.845 -1.2525e-09 
399 1 0.178457 0.0714575 0.124793 55.845 6.29407e-08 
400 1 0.178506 0.10712 0.165913 55.845 -1.88707e-07 
401 1 0.214342 0.107077 0.124679 55.845 9.24498e-08 
408 1 0.142917 -2.34097e-06 0.16578 55.845 -2.91308e-07 
409 1 0.178538 8.8276e-05 0.124778 55.845 3.06996e-07 
410 1 0.178645 0.0357635 0.165854 55.845 7.40197e-08 
411 1 0.214258 0.0356685 0.124567 55.845 4.73504e-08 
412 1 0.214255 0.0713919 0.165554 55.845 1.72922e-08 
413 1 0.249862 0.0713245 0.124389 55.845 -6.07233e-08 
414 1 0.249951 0.107054 0.165734 55.845 -3.67191e-07 
424 1 0.214302 -3.65757e-05 0.165771 55.845 3.48157e-07 
426 1 0.249936 0.0356983 0.165713 55.845 4.27456e-08 
489 1 0.142857 0.107143 0.0416667 55.845 1.76225e-07 
499 1 0.142857 0.0357143 0.0416667 55.845 3.89381e-08 
500 1 0.142898 0.0713145 0.0845136 55.845 1.36857e-07 
501 1 0.178571 0.0714286 0.0416667 55.845 9.65523e-08 
502 1 0.178574 0.107094 0.0844944 55.845 1.7498e-07 
503 1 0.214286 0.107143 0.0416667 55.845 -3.52641e-07 
510 1 0.143001 -1.71691e-05 0.0841804 55.845 2.74578e-07 
511 1 0.178571 0 0.0416667 55.845 1.68334e-07 
512 1 0.178509 0.0357222 0.0843755 55.845 2.53122e-07 
513 1 0.214286 0.0357143 0.0416667 55.845 -4.2587e-08 
514 1 0.214202 0.0713991 0.0843423 55.845 4.86906e-08 
515 1 0.25 0.0714286 0.0416667 55.845 1.30463e-07 
516 1 0.249796 0.107183 0.0842718 55.845 3.39883e-07 
526 1 0.214292 3.1745e-06 0.0843779 55.845 2.05148e-07 
528 1 0.249984 0.0356829 0.0842376 55.845 2.9142e-07 
581 1 0.142857 0.0714286 0 55.845 -1.12006e-08 
582 1 0.178571 0.107143 0 55.845 3.17765e-07 
586 1 0.142857 0 0 55.845 5.64914e-09 
587 1 0.178571 0.0357143 0 55.845 4.13425e-08 
588 1 0.214286 0.0714286 0 55.845 1.53692e-07 
589 1 0.25 0.107143 0 55.845 3.43616e-07 
594 1 0.214286 0 0 55.845 -2.17645e-07 
595 1 0.25 0.0357143 0 55.845 -2.37994e-07 
313 1 0.285787 0.107149 0.207483 55.845 -2.53529e-07 
323 1 0.250129 -4.62367e-05 0.207382 55.845 -6.77162e-07 
325 1 0.285751 0.0357936 0.207456 55.845 -5.52453e-07 
327 1 0.32138 0.0714171 0.207484 55.845 -7.3441e-07 
329 1 0.357033 0.107196 0.2075 55.845 -4.97753e-07 
337 1 0.321385 -4.34148e-05 0.207387 55.845 -7.24189e-07 
339 1 0.357078 0.0357114 0.207467 55.845 -5.76288e-07 
415 1 0.285624 0.107187 0.124568 55.845 1.61612e-07 
425 1 0.249976 -7.68011e-05 0.124513 55.845 1.02324e-08 
427 1 0.285635 0.0358265 0.124409 55.845 2.18053e-07 
428 1 0.28561 0.0713966 0.165722 55.845 -1.12417e-07 
429 1 0.32125 0.0715012 0.124541 55.845 1.00029e-07 
430 1 0.321345 0.10714 0.165547 55.845 6.5367e-08 
431 1 0.357071 0.107146 0.124694 55.845 5.23055e-08 
439 1 0.321295 0.000132027 0.124506 55.845 1.42249e-07 
440 1 0.321324 0.0357492 0.165587 55.845 1.42088e-07 
441 1 0.357063 0.0358289 0.124562 55.845 -1.79389e-07 
442 1 0.357089 0.0715034 0.165724 55.845 1.55541e-07 
517 1 0.285714 0.107143 0.0416667 55.845 -1.94452e-07 
527 1 0.25 0 0.0416667 55.845 -6.5168e-08 
529 1 0.285714 0.0357143 0.0416667 55.845 -2.92576e-07 
530 1 0.28558 0.0715413 0.0842694 55.845 -2.6721e-08 
531 1 0.321429 0.0714286 0.0416667 55.845 3.55372e-07 
532 1 0.321376 0.10723 0.0844339 55.845 4.66146e-08 
533 1 0.357143 0.107143 0.0416667 55.845 1.33373e-07 
603 1 0.357143 0.0714286 0 55.845 1.58313e-08 
541 1 0.321429 0 0.0416667 55.845 1.00605e-07 
542 1 0.321399 0.0358154 0.0842976 55.845 1.52686e-07 
543 1 0.357143 0.0357143 0.0416667 55.845 5.20111e-07 
544 1 0.357116 0.0715398 0.0844805 55.845 -7.93808e-08 
602 1 0.321429 0.0357143 0 55.845 -4.25005e-08 
596 1 0.285714 0.0714286 0 55.845 3.2683e-07 
597 1 0.321429 0.107143 0 55.845 -1.95833e-08 
612 1 0.464286 0.0357143 0 55.845 3.01566e-07 
611 1 0.428571 0 0 55.845 2.2563e-07 
610 1 0.464286 0.107143 0 55.845 -4.23689e-08 
609 1 0.428571 0.0714286 0 55.845 3.18353e-07 
608 1 0.392857 0.0357143 0 55.845 -3.37749e-08 
341 1 0.392825 0.071425 0.20738 55.845 -6.04854e-07 
343 1 0.428557 0.107199 0.207349 55.845 -4.28598e-07 
348 1 0.392865 2.22722e-05 0.207333 55.845 -6.83117e-07 
350 1 0.428503 0.0356509 0.20737 55.845 -1.72904e-07 
352 1 0.464268 0.0714435 0.207505 55.845 -2.78763e-07 
355 1 0.464284 7.28403e-06 0.207417 55.845 -4.41104e-08 
443 1 0.392869 0.0714372 0.124619 55.845 3.98921e-07 
444 1 0.392848 0.107146 0.165932 55.845 -1.06178e-07 
445 1 0.428533 0.107174 0.124856 55.845 5.02407e-07 
604 1 0.392857 0.107143 0 55.845 -6.53516e-08 
450 1 0.392851 5.54139e-05 0.124722 55.845 -7.12878e-08 
451 1 0.39281 0.0357415 0.165666 55.845 7.6342e-08 
452 1 0.428494 0.035797 0.124871 55.845 7.27755e-08 
453 1 0.428535 0.071505 0.165782 55.845 -5.81819e-07 
454 1 0.464255 0.0714188 0.124595 55.845 6.05135e-07 
455 1 0.464394 0.107247 0.165614 55.845 -7.36661e-08 
456 1 0.428543 -0.000108815 0.165569 55.845 -1.24212e-07 
457 1 0.464344 -1.71558e-05 0.12461 55.845 4.46575e-07 
458 1 0.464374 0.0356291 0.165882 55.845 -7.68323e-07 
545 1 0.392857 0.0714286 0.0416667 55.845 6.13335e-08 
546 1 0.392883 0.107121 0.0843684 55.845 1.78244e-07 
547 1 0.428571 0.107143 0.0416667 55.845 -2.77222e-07 
552 1 0.392857 0 0.0416667 55.845 4.16309e-07 
553 1 0.392774 0.0357419 0.0844188 55.845 1.52076e-08 
554 1 0.428571 0.0357143 0.0416667 55.845 -6.41206e-08 
555 1 0.42862 0.0715566 0.0843355 55.845 3.77854e-07 
556 1 0.464286 0.0714286 0.0416667 55.845 -6.83924e-07 
557 1 0.464266 0.107236 0.0842333 55.845 3.68812e-07 
558 1 0.428589 1.45827e-05 0.0844026 55.845 -2.22416e-07 
559 1 0.464286 0 0.0416667 55.845 -4.83418e-07 
560 1 0.464337 0.0357292 0.084474 55.845 3.98818e-07 
255 1 1.53201e-05 0.178494 0.207429 55.845 -2.97695e-07 
257 1 0.0357304 0.214152 0.207537 55.845 -4.12971e-07 
261 1 0.0356215 0.142787 0.207348 55.845 -9.12314e-07 
263 1 0.0714437 0.178498 0.207573 55.845 -7.6598e-07 
265 1 0.107134 0.214256 0.207292 55.845 -6.52253e-07 
273 1 0.10709 0.142881 0.207398 55.845 -9.54219e-07 
357 1 8.48887e-05 0.178432 0.124554 55.845 8.38683e-07 
358 1 7.39256e-05 0.214267 0.165763 55.845 -7.48504e-07 
359 1 0.0356681 0.214204 0.124745 55.845 4.78668e-07 
360 1 0.0356904 0.249881 0.165836 55.845 -5.2452e-09 
362 1 8.99374e-05 0.142789 0.165844 55.845 -2.06787e-07 
363 1 0.0357335 0.142644 0.124442 55.845 2.9534e-07 
364 1 0.0358052 0.178515 0.165747 55.845 -4.06239e-07 
365 1 0.0714745 0.178658 0.124662 55.845 1.55404e-07 
366 1 0.0714031 0.214313 0.16571 55.845 3.56832e-07 
367 1 0.107177 0.214253 0.124609 55.845 -3.85356e-07 
368 1 0.107108 0.249918 0.165755 55.845 5.35717e-07 
374 1 0.0715306 0.142881 0.16566 55.845 8.42036e-07 
375 1 0.107164 0.142973 0.124489 55.845 -3.88629e-07 
376 1 0.107168 0.178506 0.165724 55.845 4.3362e-07 
459 1 0 0.178571 0.0416667 55.845 -5.46238e-07 
460 1 -6.46194e-05 0.214128 0.0843327 55.845 7.61861e-07 
461 1 0.0357143 0.214286 0.0416667 55.845 -3.58721e-07 
462 1 0.0357514 0.249914 0.0844786 55.845 2.25204e-07 
464 1 0.000120851 0.142907 0.0843152 55.845 7.21321e-07 
465 1 0.0357143 0.142857 0.0416667 55.845 2.26558e-07 
466 1 0.0358275 0.17853 0.0842743 55.845 4.01144e-07 
467 1 0.0714286 0.178571 0.0416667 55.845 5.36022e-07 
468 1 0.0713888 0.214217 0.0844349 55.845 2.94169e-08 
469 1 0.107143 0.214286 0.0416667 55.845 3.70539e-07 
470 1 0.107134 0.250013 0.0843629 55.845 3.31683e-07 
476 1 0.0714122 0.142826 0.0844965 55.845 -1.66887e-07 
477 1 0.107143 0.142857 0.0416667 55.845 8.13403e-07 
478 1 0.107194 0.17856 0.0841809 55.845 -1.54402e-07 
561 1 0 0.214286 0 55.845 6.5066e-08 
562 1 0.0357143 0.25 0 55.845 -1.19366e-07 
563 1 0 0.142857 0 55.845 -1.16266e-07 
564 1 0.0357143 0.178571 0 55.845 8.858e-08 
565 1 0.0714286 0.214286 0 55.845 -2.52324e-07 
566 1 0.107143 0.25 0 55.845 -5.72189e-08 
569 1 0.0714286 0.142857 0 55.845 -4.48688e-07 
570 1 0.107143 0.178571 0 55.845 -2.5881e-07 
275 1 0.142922 0.178469 0.207464 55.845 -3.82782e-07 
277 1 0.178577 0.214259 0.20745 55.845 -4.92009e-07 
287 1 0.178515 0.142846 0.20766 55.845 -4.8368e-07 
289 1 0.214282 0.178567 0.207298 55.845 -2.89423e-07 
291 1 0.25015 0.214263 0.207504 55.845 -6.16128e-07 
301 1 0.250063 0.142884 0.207383 55.845 -5.51323e-07 
377 1 0.142931 0.17853 0.124786 55.845 -2.22365e-07 
378 1 0.142823 0.214175 0.165778 55.845 2.64597e-07 
379 1 0.178662 0.214162 0.124883 55.845 3.42069e-08 
388 1 0.142714 0.142775 0.16577 55.845 4.63202e-07 
389 1 0.178575 0.1429 0.124491 55.845 -1.76053e-07 
390 1 0.17857 0.178521 0.165713 55.845 -2.75538e-08 
391 1 0.214341 0.178575 0.124633 55.845 -1.05541e-07 
392 1 0.214417 0.214271 0.165856 55.845 -9.75001e-08 
393 1 0.250036 0.214364 0.124613 55.845 -3.49554e-07 
402 1 0.214285 0.142811 0.165752 55.845 -5.81639e-08 
403 1 0.250021 0.142885 0.124652 55.845 -1.03984e-07 
404 1 0.250057 0.178622 0.165644 55.845 4.37979e-07 
479 1 0.142857 0.178571 0.0416667 55.845 1.79038e-07 
480 1 0.142796 0.214181 0.0846689 55.845 1.27798e-07 
481 1 0.178571 0.214286 0.0416667 55.845 3.59739e-08 
490 1 0.142913 0.142792 0.0845596 55.845 -2.61594e-07 
491 1 0.178571 0.142857 0.0416667 55.845 -1.06272e-07 
492 1 0.178609 0.178493 0.0844124 55.845 -4.68966e-09 
493 1 0.214286 0.178571 0.0416667 55.845 1.21607e-07 
494 1 0.214302 0.214366 0.0843825 55.845 6.98694e-09 
495 1 0.25 0.214286 0.0416667 55.845 7.1354e-07 
504 1 0.214386 0.142813 0.0844305 55.845 1.54055e-07 
505 1 0.25 0.142857 0.0416667 55.845 3.66398e-07 
506 1 0.249972 0.178636 0.0843222 55.845 -2.96101e-07 
571 1 0.142857 0.214286 0 55.845 1.67039e-07 
576 1 0.142857 0.142857 0 55.845 -1.34638e-07 
577 1 0.178571 0.178571 0 55.845 4.2863e-07 
578 1 0.214286 0.214286 0 55.845 2.54421e-07 
583 1 0.214286 0.142857 0 55.845 5.6337e-07 
584 1 0.25 0.178571 0 55.845 1.37592e-07 
303 1 0.285714 0.178474 0.207536 55.845 -7.48872e-07 
305 1 0.321532 0.214292 0.207434 55.845 -9.77677e-07 
315 1 0.321324 0.142805 0.207595 55.845 -9.0318e-07 
317 1 0.356996 0.178487 0.207397 55.845 -9.03945e-07 
405 1 0.285678 0.178579 0.124536 55.845 -4.61048e-07 
406 1 0.285877 0.214176 0.165768 55.845 9.31221e-07 
407 1 0.321464 0.214313 0.124556 55.845 -4.12327e-07 
416 1 0.285729 0.142855 0.165693 55.845 3.2542e-07 
417 1 0.32149 0.142931 0.124717 55.845 -2.49451e-07 
418 1 0.321443 0.178515 0.165674 55.845 1.01762e-06 
419 1 0.35721 0.178641 0.124722 55.845 -2.01732e-07 
420 1 0.357184 0.214274 0.165687 55.845 5.05473e-07 
432 1 0.357122 0.142866 0.165845 55.845 4.36998e-07 
507 1 0.285714 0.178571 0.0416667 55.845 8.92189e-07 
508 1 0.28571 0.214251 0.0843467 55.845 -3.56323e-07 
509 1 0.321429 0.214286 0.0416667 55.845 1.03982e-06 
518 1 0.28566 0.14284 0.0841254 55.845 -9.33893e-08 
519 1 0.321429 0.142857 0.0416667 55.845 4.99734e-07 
520 1 0.321432 0.178524 0.0842088 55.845 -4.37615e-07 
521 1 0.357143 0.178571 0.0416667 55.845 5.92022e-07 
522 1 0.357103 0.214255 0.0844217 55.845 -2.94914e-09 
534 1 0.35715 0.142887 0.0843895 55.845 -1.18642e-07 
585 1 0.285714 0.214286 0 55.845 -3.69146e-07 
590 1 0.285714 0.142857 0 55.845 3.18575e-07 
591 1 0.321429 0.178571 0 55.845 -4.24325e-07 
592 1 0.357143 0.214286 0 55.845 -3.13741e-07 
598 1 0.357143 0.142857 0 55.845 -2.76499e-07 
319 1 0.392828 0.214173 0.207624 55.845 -7.74857e-07 
321 1 0.428583 0.250003 0.20742 55.845 -4.60494e-07 
331 1 0.392761 0.142934 0.207471 55.845 -7.3196e-07 
333 1 0.4286 0.178506 0.207564 55.845 -8.60905e-07 
335 1 0.464345 0.214302 0.207314 55.845 -1.21945e-06 
345 1 0.464292 0.142928 0.207363 55.845 -1.20147e-06 
606 1 0.464286 0.178571 0 55.845 -4.48614e-07 
421 1 0.392881 0.214248 0.12459 55.845 6.50241e-08 
422 1 0.392786 0.249949 0.165591 55.845 -3.18927e-07 
423 1 0.428599 0.249869 0.124375 55.845 5.34096e-07 
433 1 0.392735 0.142842 0.124815 55.845 1.26261e-07 
434 1 0.392771 0.178582 0.165875 55.845 4.6547e-07 
435 1 0.428564 0.178728 0.124533 55.845 1.12183e-07 
436 1 0.42847 0.214397 0.165763 55.845 -7.55162e-08 
437 1 0.464221 0.214353 0.124586 55.845 -2.69452e-08 
605 1 0.428571 0.142857 0 55.845 -1.48564e-07 
446 1 0.428549 0.14293 0.165599 55.845 -7.87736e-09 
447 1 0.464332 0.142903 0.124625 55.845 1.77696e-07 
448 1 0.464262 0.178621 0.165445 55.845 8.96768e-07 
523 1 0.392857 0.214286 0.0416667 55.845 1.41034e-07 
524 1 0.392865 0.250098 0.0844662 55.845 5.82528e-07 
525 1 0.428571 0.25 0.0416667 55.845 -8.895e-07 
535 1 0.392857 0.142857 0.0416667 55.845 7.46098e-08 
536 1 0.392877 0.178595 0.0843511 55.845 2.35419e-07 
537 1 0.428571 0.178571 0.0416667 55.845 -1.5098e-07 
538 1 0.428666 0.214357 0.0840836 55.845 8.1592e-07 
539 1 0.464286 0.214286 0.0416667 55.845 -6.88632e-08 
548 1 0.428545 0.142865 0.0844395 55.845 5.5061e-07 
549 1 0.464286 0.142857 0.0416667 55.845 4.75026e-07 
550 1 0.464373 0.178628 0.0843479 55.845 3.52161e-07 
593 1 0.392857 0.25 0 55.845 1.4378e-07 
599 1 0.392857 0.178571 0 55.845 -3.40543e-07 
600 1 0.428571 0.214286 0 55.845 -4.40695e-08 
3 1 1.8436e-05 0.107061 0.456521 55.845 -4.88348e-08 
7 1 2.89788e-05 0.0356579 0.456334 55.845 6.99039e-08 
8 1 0.0356805 0.0713657 0.456536 55.845 8.26841e-08 
9 1 0.0713417 0.107225 0.456437 55.845 2.27124e-09 
13 1 0.0355456 4.7646e-05 0.456478 55.845 6.74667e-08 
14 1 0.0713242 0.0356999 0.456508 55.845 3.48595e-07 
15 1 0.107067 0.0714036 0.456531 55.845 8.53244e-08 
20 1 0.107004 -3.44455e-05 0.456527 55.845 -4.63771e-08 
55 1 7.7173e-07 0.107088 0.373558 55.845 -4.73678e-08 
63 1 -3.34057e-05 0.0357581 0.373512 55.845 -8.69771e-08 
64 1 0.000125329 0.071469 0.414805 55.845 -3.78184e-07 
65 1 0.0356141 0.071438 0.373461 55.845 -8.38382e-08 
66 1 0.0357948 0.107194 0.414876 55.845 1.51656e-07 
67 1 0.0713939 0.107079 0.373381 55.845 -5.24655e-07 
74 1 -9.62871e-05 -1.96496e-05 0.414652 55.845 2.66661e-08 
75 1 0.0356758 -2.76292e-05 0.37337 55.845 -2.67993e-07 
76 1 0.03578 0.0356086 0.414599 55.845 -4.72655e-07 
77 1 0.0714653 0.0357816 0.373442 55.845 -8.23463e-08 
78 1 0.07136 0.0714841 0.414857 55.845 -2.85645e-07 
79 1 0.107213 0.0714393 0.373643 55.845 -1.99253e-07 
80 1 0.10716 0.107138 0.414705 55.845 2.82954e-07 
88 1 0.0714199 -6.64205e-05 0.414453 55.845 -4.62091e-07 
89 1 0.107106 -5.48612e-05 0.373734 55.845 4.06537e-08 
90 1 0.107172 0.0356559 0.414793 55.845 -5.0267e-07 
157 1 -5.28088e-05 0.107091 0.291087 55.845 1.02556e-07 
165 1 2.55364e-05 0.0357786 0.290794 55.845 -1.38547e-07 
166 1 0.000122149 0.0714608 0.331761 55.845 1.88163e-07 
167 1 0.0357324 0.071486 0.290568 55.845 5.44124e-08 
168 1 0.0357954 0.107263 0.331769 55.845 8.0597e-08 
169 1 0.0715275 0.107175 0.290727 55.845 3.77957e-07 
176 1 -0.000153311 0.00012531 0.331685 55.845 -4.01799e-08 
177 1 0.0356612 -6.65751e-05 0.29095 55.845 -1.29714e-07 
178 1 0.0358046 0.0357449 0.331727 55.845 4.11181e-07 
179 1 0.0714651 0.0357678 0.290833 55.845 -3.25638e-07 
180 1 0.0714587 0.0715279 0.331614 55.845 7.81983e-08 
181 1 0.107197 0.071433 0.290767 55.845 -1.05548e-08 
182 1 0.107184 0.107046 0.331582 55.845 -6.26623e-08 
190 1 0.0713515 7.55035e-05 0.331867 55.845 3.02615e-07 
191 1 0.107146 -7.46377e-05 0.291021 55.845 -2.17583e-07 
192 1 0.10721 0.0356976 0.331677 55.845 2.69603e-07 
268 1 -1.11959e-05 0.0713705 0.249223 55.845 2.6628e-07 
270 1 0.0357263 0.107182 0.249218 55.845 4.45914e-08 
278 1 -0.000149173 -3.9585e-05 0.249616 55.845 2.74874e-07 
280 1 0.0359484 0.0357108 0.249487 55.845 6.16195e-07 
282 1 0.071532 0.071435 0.249385 55.845 2.01249e-07 
284 1 0.107096 0.107071 0.249264 55.845 2.62465e-07 
292 1 0.0715216 -4.49169e-05 0.249555 55.845 5.18108e-07 
294 1 0.10719 0.0356623 0.249487 55.845 2.46222e-07 
16 1 0.142749 0.107271 0.456681 55.845 2.07887e-07 
21 1 0.142831 0.0355962 0.456562 55.845 1.61768e-07 
22 1 0.178484 0.0713977 0.45688 55.845 4.63707e-07 
23 1 0.214163 0.107208 0.456832 55.845 4.17637e-07 
27 1 0.178709 -7.3953e-05 0.456736 55.845 1.08167e-07 
28 1 0.214329 0.0357204 0.456798 55.845 1.01235e-07 
29 1 0.250086 0.0714111 0.456839 55.845 2.63328e-07 
81 1 0.142718 0.107093 0.373771 55.845 -5.35183e-07 
91 1 0.142921 0.0357029 0.37366 55.845 -2.9615e-07 
92 1 0.142924 0.071432 0.415093 55.845 -2.45098e-07 
93 1 0.17844 0.0714436 0.37377 55.845 -1.5655e-07 
94 1 0.178558 0.107145 0.415087 55.845 -4.49092e-07 
95 1 0.214252 0.107064 0.37379 55.845 4.19038e-08 
102 1 0.142886 -6.22765e-05 0.414875 55.845 -1.4299e-07 
103 1 0.178678 8.41062e-05 0.373714 55.845 -2.99883e-07 
104 1 0.178689 0.0356225 0.41521 55.845 -1.66517e-07 
105 1 0.214449 0.0356854 0.373741 55.845 -1.63236e-07 
106 1 0.214309 0.07145 0.41514 55.845 -5.65838e-07 
107 1 0.249916 0.0714095 0.37367 55.845 1.70649e-08 
108 1 0.250047 0.107166 0.414938 55.845 -6.36391e-07 
118 1 0.214307 -7.95663e-06 0.41508 55.845 -6.70096e-08 
120 1 0.250081 0.0356801 0.415081 55.845 -2.70923e-07 
183 1 0.142775 0.107136 0.290994 55.845 3.73595e-08 
193 1 0.142814 0.0357799 0.290957 55.845 -4.03592e-07 
194 1 0.142853 0.0712803 0.33162 55.845 1.75269e-07 
195 1 0.178476 0.0713158 0.29082 55.845 -5.19384e-08 
196 1 0.178463 0.106965 0.331669 55.845 5.4434e-09 
197 1 0.214231 0.107091 0.290853 55.845 -2.00608e-07 
204 1 0.142892 1.16416e-05 0.331876 55.845 5.51709e-08 
205 1 0.178564 -1.84552e-05 0.29084 55.845 1.36222e-07 
206 1 0.178763 0.0357599 0.331909 55.845 1.14356e-07 
207 1 0.214447 0.0357777 0.291093 55.845 1.75346e-08 
208 1 0.214123 0.0714958 0.331869 55.845 -2.89752e-09 
209 1 0.249932 0.0714527 0.290905 55.845 -2.13179e-08 
210 1 0.249903 0.107128 0.331762 55.845 -5.56089e-08 
220 1 0.214392 9.20136e-05 0.33157 55.845 2.34705e-07 
222 1 0.250006 0.0357467 0.331843 55.845 1.57986e-07 
296 1 0.142882 0.0713532 0.249449 55.845 3.10743e-07 
298 1 0.178657 0.107017 0.249488 55.845 6.42367e-07 
306 1 0.142807 -1.16785e-05 0.249529 55.845 2.27463e-07 
308 1 0.17865 0.0356283 0.249518 55.845 2.99568e-07 
310 1 0.214225 0.0712358 0.249356 55.845 4.48648e-07 
312 1 0.249982 0.107105 0.249467 55.845 4.91007e-07 
322 1 0.21434 5.88281e-05 0.249452 55.845 2.11602e-07 
324 1 0.250007 0.0357607 0.249559 55.845 5.84156e-07 
30 1 0.285715 0.107207 0.456392 55.845 3.4978e-07 
35 1 0.250273 -6.47443e-05 0.456599 55.845 -2.5787e-08 
36 1 0.285772 0.0356054 0.456723 55.845 3.12598e-07 
37 1 0.321368 0.0713581 0.456523 55.845 3.7298e-07 
38 1 0.357211 0.107008 0.456695 55.845 -1.85711e-08 
42 1 0.321481 -0.000143695 0.456651 55.845 1.35473e-07 
43 1 0.357118 0.0356587 0.456594 55.845 2.35158e-07 
109 1 0.285674 0.10708 0.373284 55.845 -4.53046e-08 
119 1 0.250037 7.2295e-05 0.373731 55.845 -5.28133e-08 
121 1 0.285812 0.0357142 0.373544 55.845 -6.87237e-08 
122 1 0.285675 0.0714634 0.414742 55.845 -5.97422e-07 
123 1 0.321493 0.0713509 0.373661 55.845 -1.47727e-07 
124 1 0.321479 0.107039 0.414861 55.845 -2.85015e-07 
125 1 0.357164 0.107072 0.373337 55.845 -8.58384e-08 
133 1 0.321543 -4.87909e-05 0.373668 55.845 -3.71827e-07 
134 1 0.321507 0.0355694 0.414763 55.845 -1.99397e-07 
135 1 0.357181 0.0357736 0.373457 55.845 -5.20246e-07 
136 1 0.357237 0.0713284 0.414717 55.845 -2.6935e-07 
211 1 0.285665 0.107106 0.290904 55.845 -7.21457e-08 
221 1 0.250087 -1.78647e-06 0.290816 55.845 -1.30102e-07 
223 1 0.285716 0.035709 0.29086 55.845 -1.33835e-07 
224 1 0.285691 0.071321 0.331785 55.845 -1.80392e-08 
225 1 0.32141 0.0712712 0.290916 55.845 1.24574e-07 
226 1 0.321386 0.107048 0.33181 55.845 -2.80182e-07 
227 1 0.357156 0.107142 0.290808 55.845 1.88406e-07 
235 1 0.321459 -9.73612e-05 0.290694 55.845 -8.85213e-08 
236 1 0.321445 0.035634 0.331626 55.845 -4.66408e-08 
237 1 0.357106 0.035534 0.290778 55.845 -1.41041e-07 
238 1 0.357284 0.0714187 0.331648 55.845 1.41736e-07 
326 1 0.285603 0.0714263 0.249552 55.845 3.79569e-07 
328 1 0.321396 0.107098 0.249666 55.845 4.23283e-07 
338 1 0.321407 0.0356898 0.249474 55.845 4.38119e-07 
340 1 0.357081 0.071373 0.249525 55.845 3.13307e-07 
44 1 0.392801 0.0714222 0.456489 55.845 3.25016e-07 
45 1 0.42854 0.107059 0.456537 55.845 1.62617e-07 
47 1 0.392748 1.84588e-05 0.456865 55.845 1.22748e-07 
48 1 0.428607 0.0356435 0.456839 55.845 2.46295e-07 
49 1 0.464314 0.0715379 0.456868 55.845 3.43949e-07 
50 1 0.464182 0.000103119 0.456966 55.845 2.99558e-07 
137 1 0.392911 0.0714756 0.373443 55.845 -1.72514e-07 
138 1 0.392874 0.106999 0.414943 55.845 -3.03896e-07 
139 1 0.428531 0.107112 0.373518 55.845 -4.42129e-08 
144 1 0.392916 9.79364e-05 0.37363 55.845 -7.89439e-07 
145 1 0.392831 0.0356293 0.414948 55.845 -1.41334e-07 
146 1 0.428499 0.0357839 0.373584 55.845 -2.67446e-07 
147 1 0.428645 0.0715326 0.415027 55.845 -7.48302e-07 
148 1 0.464303 0.0714876 0.373566 55.845 1.75289e-07 
149 1 0.464299 0.10714 0.415113 55.845 -2.24787e-07 
150 1 0.428604 -1.45537e-06 0.41483 55.845 1.74003e-07 
151 1 0.464265 0.000127378 0.373679 55.845 -4.22705e-07 
152 1 0.464235 0.0358701 0.415041 55.845 -6.3258e-07 
239 1 0.39292 0.0715687 0.290697 55.845 -1.59016e-07 
240 1 0.392795 0.107175 0.331655 55.845 9.40494e-08 
241 1 0.428607 0.107222 0.290954 55.845 -3.09526e-07 
246 1 0.392828 5.14617e-05 0.290842 55.845 4.47431e-07 
247 1 0.392944 0.0357443 0.331953 55.845 1.63397e-08 
248 1 0.428538 0.0358073 0.290752 55.845 -1.68429e-07 
249 1 0.428619 0.071484 0.331888 55.845 4.96109e-07 
250 1 0.464189 0.0714801 0.290622 55.845 -7.34026e-07 
251 1 0.464346 0.107115 0.331837 55.845 3.25739e-07 
252 1 0.428565 7.02493e-05 0.33176 55.845 9.38844e-08 
253 1 0.464296 0.000112293 0.290644 55.845 -4.1162e-07 
254 1 0.464209 0.035789 0.331713 55.845 2.89634e-07 
342 1 0.392824 0.107108 0.249571 55.845 3.27818e-07 
349 1 0.392815 0.0356964 0.249414 55.845 3.2305e-07 
351 1 0.42858 0.0715016 0.249518 55.845 4.65948e-07 
353 1 0.464192 0.107172 0.249357 55.845 3.7613e-07 
354 1 0.428536 6.31837e-06 0.249426 55.845 3.08967e-07 
356 1 0.464327 0.0356313 0.249334 55.845 6.81307e-07 
1 1 1.00085e-05 0.178548 0.456429 55.845 1.54619e-07 
2 1 0.0357739 0.214493 0.456574 55.845 1.3423e-07 
4 1 0.0356151 0.142894 0.456594 55.845 -1.73695e-07 
5 1 0.0713828 0.178532 0.456741 55.845 6.59177e-08 
6 1 0.107285 0.214339 0.456541 55.845 1.88603e-07 
10 1 0.107204 0.142829 0.456589 55.845 -1.43084e-07 
51 1 -7.33864e-05 0.178489 0.373492 55.845 2.33168e-07 
52 1 -2.97466e-05 0.21418 0.414919 55.845 -8.8636e-07 
53 1 0.0356958 0.214335 0.373589 55.845 -1.99467e-07 
54 1 0.0356978 0.25005 0.414749 55.845 -4.44761e-08 
56 1 -0.000117171 0.142828 0.414805 55.845 -4.01805e-07 
57 1 0.0357248 0.142839 0.373576 55.845 -2.89209e-07 
58 1 0.0356007 0.178591 0.41482 55.845 -7.50304e-08 
59 1 0.071336 0.178588 0.373628 55.845 -6.18139e-07 
60 1 0.0713822 0.214251 0.41484 55.845 2.92949e-08 
61 1 0.107232 0.214196 0.373664 55.845 -5.47187e-07 
62 1 0.107206 0.250023 0.414749 55.845 1.82249e-07 
68 1 0.0713745 0.142958 0.41493 55.845 4.41867e-07 
69 1 0.10709 0.142773 0.373585 55.845 -6.77343e-07 
70 1 0.107186 0.178566 0.414819 55.845 4.14676e-07 
153 1 0.000118585 0.178494 0.290878 55.845 -5.73935e-07 
154 1 -5.05996e-05 0.214293 0.33172 55.845 6.91448e-07 
155 1 0.0358142 0.21418 0.29093 55.845 -3.05515e-07 
156 1 0.0357636 0.249981 0.331624 55.845 4.26551e-07 
158 1 -2.87565e-05 0.142871 0.331735 55.845 2.72805e-07 
159 1 0.0357864 0.14281 0.290852 55.845 -1.3218e-07 
160 1 0.0356532 0.178475 0.331816 55.845 4.91704e-07 
161 1 0.071472 0.178438 0.291149 55.845 1.22063e-07 
162 1 0.0714368 0.214304 0.331758 55.845 2.14345e-07 
163 1 0.10723 0.214242 0.290866 55.845 2.92169e-07 
164 1 0.107143 0.249981 0.331573 55.845 -2.19516e-08 
170 1 0.0714058 0.142817 0.33183 55.845 3.94992e-08 
171 1 0.10712 0.142868 0.290877 55.845 3.70545e-07 
172 1 0.107145 0.178466 0.331826 55.845 2.20367e-07 
256 1 1.22937e-05 0.214219 0.249602 55.845 2.39615e-07 
258 1 0.0357868 0.249905 0.249517 55.845 4.7638e-07 
260 1 4.74341e-05 0.142943 0.249477 55.845 2.3308e-07 
262 1 0.0358492 0.178491 0.249718 55.845 1.50391e-07 
264 1 0.0715193 0.214255 0.249566 55.845 2.92544e-07 
266 1 0.107217 0.24993 0.249467 55.845 2.01177e-07 
272 1 0.0713817 0.142845 0.249638 55.845 1.64903e-07 
274 1 0.107198 0.178589 0.249661 55.845 1.76193e-07 
11 1 0.142898 0.178661 0.456579 55.845 1.97647e-07 
12 1 0.178496 0.214274 0.456714 55.845 9.73764e-08 
17 1 0.178414 0.142998 0.456789 55.845 2.22219e-07 
18 1 0.21411 0.178741 0.456423 55.845 3.52149e-07 
19 1 0.249938 0.214184 0.456554 55.845 3.17913e-07 
24 1 0.249999 0.142868 0.45652 55.845 5.24572e-07 
71 1 0.142863 0.178494 0.373511 55.845 -7.80662e-07 
72 1 0.142962 0.214278 0.414735 55.845 -6.17956e-08 
73 1 0.178715 0.21436 0.373367 55.845 -2.78625e-07 
82 1 0.142713 0.142759 0.415011 55.845 1.96006e-07 
83 1 0.178622 0.142799 0.373622 55.845 -2.78689e-07 
84 1 0.17844 0.178619 0.414667 55.845 -9.14239e-08 
85 1 0.214213 0.178505 0.37339 55.845 -4.62109e-07 
86 1 0.214279 0.214275 0.414534 55.845 -2.17553e-07 
87 1 0.250138 0.214296 0.37358 55.845 -8.3581e-07 
96 1 0.214277 0.142832 0.414873 55.845 -4.9029e-07 
97 1 0.249896 0.142751 0.373743 55.845 -5.30962e-07 
98 1 0.249895 0.178568 0.4147 55.845 1.44735e-07 
173 1 0.142883 0.178588 0.29092 55.845 1.98874e-07 
174 1 0.142889 0.21426 0.331832 55.845 -2.92173e-08 
175 1 0.178688 0.214209 0.290627 55.845 4.22125e-08 
184 1 0.142885 0.142849 0.331803 55.845 2.84127e-07 
185 1 0.17866 0.142862 0.291041 55.845 7.76571e-08 
186 1 0.178723 0.178554 0.331614 55.845 -1.71748e-07 
187 1 0.214315 0.178575 0.290702 55.845 -7.59639e-08 
188 1 0.214359 0.214152 0.331641 55.845 -1.41753e-07 
189 1 0.250201 0.214297 0.290848 55.845 3.62543e-07 
198 1 0.214319 0.142751 0.3317 55.845 -2.23956e-07 
199 1 0.249957 0.142836 0.290725 55.845 -1.48831e-07 
200 1 0.249998 0.17844 0.331857 55.845 -8.36623e-08 
276 1 0.142852 0.214159 0.2495 55.845 3.27857e-07 
286 1 0.142747 0.142673 0.249378 55.845 5.86386e-07 
288 1 0.178549 0.178474 0.249373 55.845 5.13343e-07 
290 1 0.214392 0.21432 0.249183 55.845 5.78435e-07 
300 1 0.214377 0.142847 0.249545 55.845 6.37134e-07 
302 1 0.249996 0.17852 0.249557 55.845 2.90409e-07 
25 1 0.285719 0.178453 0.456486 55.845 6.75398e-08 
26 1 0.321425 0.21432 0.456533 55.845 -2.42396e-08 
31 1 0.321454 0.1428 0.456496 55.845 1.51014e-07 
32 1 0.35722 0.178551 0.456426 55.845 -2.65804e-07 
99 1 0.285697 0.178389 0.373621 55.845 -8.50474e-07 
100 1 0.285636 0.214288 0.41515 55.845 7.25087e-07 
101 1 0.321383 0.214442 0.373911 55.845 -7.68415e-07 
110 1 0.285635 0.142771 0.414807 55.845 -7.69246e-08 
111 1 0.321346 0.142768 0.373682 55.845 -2.00592e-07 
112 1 0.321425 0.178575 0.414763 55.845 5.56772e-07 
113 1 0.357142 0.178576 0.373689 55.845 -3.56249e-07 
114 1 0.357174 0.214355 0.414889 55.845 2.80514e-07 
126 1 0.35711 0.142722 0.41475 55.845 -4.05196e-08 
201 1 0.285747 0.178557 0.290958 55.845 5.72882e-07 
202 1 0.285726 0.214189 0.331884 55.845 -2.12423e-07 
203 1 0.321348 0.214413 0.290967 55.845 6.98424e-07 
212 1 0.285635 0.142886 0.331736 55.845 -3.00909e-07 
213 1 0.321434 0.142709 0.29111 55.845 5.54741e-07 
214 1 0.321427 0.17852 0.332032 55.845 -3.9968e-07 
215 1 0.357109 0.178612 0.291122 55.845 5.42821e-07 
216 1 0.35708 0.214389 0.332016 55.845 1.5985e-07 