ITEM: TIMESTEP
900
ITEM: NUMBER OF ATOMS
5880
ITEM: BOX BOUNDS pp pp ff
-27.9847 27.9847
-27.9847 27.9847
0 34.092
ITEM: ATOMS id type xs ys zs mass q 
259 1 -3.15881e-05 0.107179 0.208932 55.845 -2.5315e-07 
267 1 4.63833e-05 0.0356477 0.20896 55.845 -8.49613e-09 
269 1 0.0357085 0.0714521 0.208961 55.845 -6.46415e-08 
271 1 0.0714414 0.107129 0.208988 55.845 -2.88244e-07 
279 1 0.0357088 6.42647e-06 0.20902 55.845 -9.35996e-08 
281 1 0.0714306 0.0357851 0.209059 55.845 -3.35323e-07 
283 1 0.107147 0.0714216 0.209007 55.845 -3.25995e-07 
293 1 0.107103 2.97424e-05 0.208924 55.845 -5.61831e-07 
361 1 -1.69393e-05 0.107144 0.124942 55.845 2.85995e-07 
369 1 4.38515e-05 0.0357092 0.124961 55.845 -8.04183e-08 
370 1 -4.30079e-05 0.0714579 0.167041 55.845 3.44428e-07 
371 1 0.0357951 0.0713593 0.124965 55.845 6.79092e-09 
372 1 0.0357519 0.107122 0.16704 55.845 4.69107e-07 
373 1 0.0714094 0.107113 0.12491 55.845 1.65661e-07 
380 1 6.0003e-06 -7.43988e-05 0.167105 55.845 1.70656e-07 
381 1 0.0357028 -2.59793e-05 0.124781 55.845 -1.5065e-07 
382 1 0.0357351 0.0356775 0.167051 55.845 1.77126e-07 
383 1 0.0714883 0.035717 0.12498 55.845 -1.46889e-07 
384 1 0.0714925 0.0714798 0.167086 55.845 8.51803e-08 
385 1 0.10714 0.0714223 0.124975 55.845 1.32509e-07 
386 1 0.107152 0.107128 0.167075 55.845 1.93192e-07 
394 1 0.0713363 9.21652e-06 0.167013 55.845 4.33716e-09 
395 1 0.107105 1.29492e-05 0.124986 55.845 -9.60104e-08 
396 1 0.107151 0.0357081 0.167025 55.845 -7.69537e-08 
463 1 0 0.107143 0.0416667 55.845 3.64615e-08 
471 1 0 0.0357143 0.0416667 55.845 2.52334e-07 
472 1 7.59196e-06 0.0714277 0.0826036 55.845 -6.3313e-08 
473 1 0.0357143 0.0714286 0.0416667 55.845 1.37474e-07 
474 1 0.0357073 0.107151 0.0825949 55.845 -3.62955e-08 
475 1 0.0714286 0.107143 0.0416667 55.845 6.05761e-08 
482 1 -4.11233e-05 1.45645e-05 0.0825956 55.845 -1.68391e-07 
483 1 0.0357143 0 0.0416667 55.845 7.87683e-08 
484 1 0.0357413 0.0357293 0.0825799 55.845 -2.22021e-07 
485 1 0.0714286 0.0357143 0.0416667 55.845 1.13541e-07 
486 1 0.0714741 0.0714381 0.0825896 55.845 -2.11497e-08 
487 1 0.107143 0.0714286 0.0416667 55.845 3.9354e-07 
488 1 0.107179 0.107115 0.0824707 55.845 1.55574e-07 
496 1 0.0714275 -2.18752e-05 0.0825806 55.845 -2.77703e-07 
497 1 0.107143 0 0.0416667 55.845 -4.66979e-08 
498 1 0.107153 0.035694 0.0825992 55.845 -9.42243e-08 
567 1 0 0.0714286 0 55.845 8.67503e-08 
568 1 0.0357143 0.107143 0 55.845 -4.95153e-07 
572 1 0 0 0 55.845 1.45271e-07 
573 1 0.0357143 0.0357143 0 55.845 9.83138e-08 
574 1 0.0714286 0.0714286 0 55.845 -8.36329e-08 
575 1 0.107143 0.107143 0 55.845 -2.05153e-07 
579 1 0.0714286 0 0 55.845 1.80425e-07 
580 1 0.107143 0.0357143 0 55.845 1.4221e-07 
285 1 0.142761 0.107157 0.209044 55.845 -3.25535e-07 
295 1 0.142816 0.0356535 0.208926 55.845 -1.29305e-07 
297 1 0.178568 0.071486 0.208931 55.845 -9.8473e-08 
299 1 0.214295 0.107162 0.209049 55.845 1.06226e-07 
307 1 0.178512 8.32481e-06 0.209045 55.845 -1.53934e-07 
309 1 0.214243 0.0357112 0.208914 55.845 -2.80665e-07 
311 1 0.249964 0.0714234 0.209 55.845 -4.59258e-08 
387 1 0.142862 0.107103 0.124966 55.845 2.06458e-07 
397 1 0.142879 0.0357198 0.124918 55.845 -3.94989e-08 
398 1 0.142821 0.0714249 0.166983 55.845 1.04621e-07 
399 1 0.178611 0.0714188 0.125029 55.845 2.86711e-07 
400 1 0.1786 0.107142 0.167061 55.845 2.16108e-07 
401 1 0.21428 0.107164 0.124923 55.845 -3.33249e-08 
408 1 0.142864 -3.79075e-05 0.167057 55.845 -3.47421e-08 
409 1 0.178517 1.73126e-05 0.124894 55.845 -1.69729e-07 
410 1 0.178555 0.0356739 0.167076 55.845 -8.79585e-08 
411 1 0.214282 0.0357413 0.124959 55.845 3.89217e-08 
412 1 0.214283 0.0714472 0.167082 55.845 1.13889e-07 
413 1 0.249972 0.0713538 0.124988 55.845 -1.33627e-07 
414 1 0.250019 0.107096 0.167048 55.845 2.82051e-07 
424 1 0.214346 3.46226e-05 0.167077 55.845 -9.34165e-08 
426 1 0.250032 0.0356628 0.16711 55.845 -7.94784e-08 
489 1 0.142857 0.107143 0.0416667 55.845 3.75544e-07 
499 1 0.142857 0.0357143 0.0416667 55.845 2.43329e-07 
500 1 0.142945 0.0714156 0.0826456 55.845 1.88349e-07 
501 1 0.178571 0.0714286 0.0416667 55.845 4.66518e-07 
502 1 0.17852 0.107051 0.0825919 55.845 9.93301e-08 
503 1 0.214286 0.107143 0.0416667 55.845 2.58859e-08 
510 1 0.142843 -8.11895e-05 0.0825918 55.845 -1.69413e-07 
511 1 0.178571 0 0.0416667 55.845 -1.89379e-07 
512 1 0.178537 0.0356873 0.0826647 55.845 -4.46059e-09 
513 1 0.214286 0.0357143 0.0416667 55.845 3.35023e-07 
514 1 0.214301 0.0714411 0.0825587 55.845 -1.8822e-07 
515 1 0.25 0.0714286 0.0416667 55.845 3.57353e-07 
516 1 0.250041 0.107148 0.0825102 55.845 -4.78341e-07 
526 1 0.214317 3.24285e-05 0.0826191 55.845 -3.27719e-07 
528 1 0.250035 0.0357267 0.0824532 55.845 -2.27534e-08 
581 1 0.142857 0.0714286 0 55.845 8.40748e-08 
582 1 0.178571 0.107143 0 55.845 -2.31853e-07 
586 1 0.142857 0 0 55.845 -8.89122e-08 
587 1 0.178571 0.0357143 0 55.845 1.44315e-07 
588 1 0.214286 0.0714286 0 55.845 3.96107e-07 
589 1 0.25 0.107143 0 55.845 -1.0634e-07 
594 1 0.214286 0 0 55.845 1.51938e-07 
595 1 0.25 0.0357143 0 55.845 2.4996e-07 
313 1 0.285677 0.107158 0.209072 55.845 -2.81114e-07 
323 1 0.249954 -6.37572e-05 0.209126 55.845 -4.01179e-07 
325 1 0.285732 0.0356828 0.209119 55.845 -2.81643e-07 
327 1 0.32138 0.0714201 0.208976 55.845 -2.30171e-07 
329 1 0.357105 0.107166 0.20904 55.845 -1.43917e-07 
337 1 0.321409 -1.62752e-05 0.209037 55.845 -1.86142e-07 
339 1 0.357146 0.0357277 0.209108 55.845 -1.44067e-07 
415 1 0.285727 0.107162 0.124949 55.845 2.21326e-07 
425 1 0.249923 4.5908e-06 0.1249 55.845 1.63188e-08 
427 1 0.285737 0.0357347 0.124918 55.845 1.24544e-07 
428 1 0.285715 0.0714345 0.167134 55.845 2.23343e-08 
429 1 0.321466 0.0713888 0.125067 55.845 2.10872e-07 
430 1 0.321381 0.107159 0.167154 55.845 2.14913e-07 
431 1 0.357069 0.107201 0.124923 55.845 1.88441e-08 
439 1 0.321385 6.9518e-06 0.125027 55.845 2.01323e-07 
440 1 0.321472 0.0357115 0.167053 55.845 3.30685e-07 
441 1 0.357199 0.0356435 0.125018 55.845 2.00806e-07 
442 1 0.357142 0.0714578 0.167034 55.845 2.00433e-07 
517 1 0.285714 0.107143 0.0416667 55.845 -2.44139e-07 
527 1 0.25 0 0.0416667 55.845 1.15086e-07 
529 1 0.285714 0.0357143 0.0416667 55.845 2.08892e-07 
530 1 0.285715 0.0714186 0.0826453 55.845 -1.18634e-07 
531 1 0.321429 0.0714286 0.0416667 55.845 1.41887e-08 
532 1 0.321403 0.107125 0.082635 55.845 -2.75666e-07 
533 1 0.357143 0.107143 0.0416667 55.845 3.62158e-08 
603 1 0.357143 0.0714286 0 55.845 -1.45878e-07 
541 1 0.321429 0 0.0416667 55.845 -3.38677e-08 
542 1 0.321442 0.0357018 0.0826058 55.845 7.98261e-08 
543 1 0.357143 0.0357143 0.0416667 55.845 -1.95095e-08 
544 1 0.357102 0.0713881 0.0826289 55.845 2.70126e-08 
602 1 0.321429 0.0357143 0 55.845 -1.78459e-07 
596 1 0.285714 0.0714286 0 55.845 -1.10738e-08 
597 1 0.321429 0.107143 0 55.845 -1.67162e-07 
612 1 0.464286 0.0357143 0 55.845 4.4025e-07 
611 1 0.428571 0 0 55.845 4.03797e-07 
610 1 0.464286 0.107143 0 55.845 1.06444e-07 
609 1 0.428571 0.0714286 0 55.845 1.35084e-07 
608 1 0.392857 0.0357143 0 55.845 2.67763e-08 
341 1 0.392852 0.0714838 0.208924 55.845 -1.38634e-07 
343 1 0.428549 0.107159 0.209019 55.845 -1.07843e-07 
348 1 0.392879 2.83296e-05 0.209033 55.845 -8.31484e-08 
350 1 0.428581 0.0357481 0.209005 55.845 -4.06613e-07 
352 1 0.464322 0.0713831 0.209046 55.845 -2.33997e-07 
355 1 0.464319 4.58119e-05 0.209147 55.845 -4.98733e-07 
443 1 0.39287 0.0714474 0.124828 55.845 4.8921e-08 
444 1 0.392808 0.107189 0.166989 55.845 2.11791e-07 
445 1 0.428625 0.107121 0.124919 55.845 -1.13731e-07 
604 1 0.392857 0.107143 0 55.845 -4.6077e-07 
450 1 0.39284 -3.3871e-05 0.124879 55.845 -5.12881e-09 
451 1 0.392894 0.0356834 0.167034 55.845 3.80819e-07 
452 1 0.428572 0.0357656 0.124985 55.845 4.22864e-08 
453 1 0.428587 0.0714174 0.167199 55.845 2.25374e-07 
454 1 0.464322 0.0714236 0.12494 55.845 -1.90264e-08 
455 1 0.464281 0.107058 0.167129 55.845 2.24692e-08 
456 1 0.428588 4.21329e-05 0.167083 55.845 5.9501e-09 
457 1 0.464314 -2.64854e-05 0.125033 55.845 -1.47591e-07 
458 1 0.464276 0.0356565 0.167059 55.845 -2.06521e-07 
545 1 0.392857 0.0714286 0.0416667 55.845 2.94307e-07 
546 1 0.39286 0.107123 0.0826244 55.845 -8.89495e-08 
547 1 0.428571 0.107143 0.0416667 55.845 1.31702e-07 
552 1 0.392857 0 0.0416667 55.845 6.10839e-08 
553 1 0.392815 0.035735 0.0825847 55.845 1.27365e-07 
554 1 0.428571 0.0357143 0.0416667 55.845 3.99145e-07 
555 1 0.428586 0.0714739 0.0826197 55.845 8.6932e-08 
556 1 0.464286 0.0714286 0.0416667 55.845 9.68141e-08 
557 1 0.464321 0.107114 0.0825661 55.845 -3.91531e-07 
558 1 0.428575 -6.63249e-05 0.0826172 55.845 -2.21001e-07 
559 1 0.464286 0 0.0416667 55.845 2.85931e-07 
560 1 0.464255 0.0356827 0.0826665 55.845 3.6112e-08 
255 1 -0.000107497 0.178553 0.208972 55.845 -2.00807e-07 
257 1 0.0356934 0.214287 0.209027 55.845 -1.96541e-07 
261 1 0.035795 0.142829 0.209015 55.845 -1.56673e-07 
263 1 0.0714653 0.178536 0.209034 55.845 -3.64502e-08 
265 1 0.107102 0.214329 0.208987 55.845 -3.17848e-07 
273 1 0.107241 0.142859 0.208947 55.845 -2.29695e-07 
357 1 -2.71173e-05 0.178614 0.124904 55.845 -1.08053e-08 
358 1 -4.35796e-05 0.214234 0.167093 55.845 -2.08004e-08 
359 1 0.0357126 0.214251 0.124999 55.845 2.1291e-08 
360 1 0.0356838 0.250009 0.167169 55.845 -1.41888e-07 
362 1 1.12323e-05 0.142931 0.167065 55.845 3.49216e-07 
363 1 0.0357472 0.142812 0.125086 55.845 1.84234e-07 
364 1 0.0356908 0.178595 0.167115 55.845 2.77307e-07 
365 1 0.0713623 0.178549 0.124906 55.845 7.3602e-08 
366 1 0.071391 0.214283 0.167146 55.845 1.11988e-07 
367 1 0.107197 0.214313 0.125034 55.845 3.94421e-08 
368 1 0.107124 0.250023 0.167279 55.845 -1.0755e-07 
374 1 0.0714917 0.142838 0.16702 55.845 3.67981e-07 
375 1 0.107101 0.142895 0.124886 55.845 2.28182e-07 
376 1 0.107112 0.178538 0.167122 55.845 2.76197e-07 
459 1 0 0.178571 0.0416667 55.845 -5.29157e-08 
460 1 -4.94197e-05 0.214227 0.0826024 55.845 -1.57166e-07 
461 1 0.0357143 0.214286 0.0416667 55.845 2.06071e-07 
462 1 0.0357432 0.250077 0.082668 55.845 -4.78868e-08 
464 1 5.44191e-05 0.142879 0.0826297 55.845 -7.89145e-08 
465 1 0.0357143 0.142857 0.0416667 55.845 -2.90662e-07 
466 1 0.0357162 0.178574 0.0826517 55.845 -3.19844e-07 
467 1 0.0714286 0.178571 0.0416667 55.845 -9.11471e-08 
468 1 0.0713846 0.214311 0.0827345 55.845 -3.85497e-07 
469 1 0.107143 0.214286 0.0416667 55.845 2.95978e-07 
470 1 0.107117 0.250018 0.0826712 55.845 -1.84059e-07 
476 1 0.0714338 0.142828 0.0826033 55.845 -6.04355e-08 
477 1 0.107143 0.142857 0.0416667 55.845 1.93312e-09 
478 1 0.107134 0.178525 0.0825608 55.845 -3.0818e-07 
561 1 0 0.214286 0 55.845 4.79981e-07 
562 1 0.0357143 0.25 0 55.845 4.96696e-07 
563 1 0 0.142857 0 55.845 -2.95534e-07 
564 1 0.0357143 0.178571 0 55.845 -6.72155e-08 
565 1 0.0714286 0.214286 0 55.845 1.42692e-07 
566 1 0.107143 0.25 0 55.845 3.74614e-07 
569 1 0.0714286 0.142857 0 55.845 -7.58606e-07 
570 1 0.107143 0.178571 0 55.845 -3.66877e-07 
275 1 0.142898 0.178599 0.208877 55.845 -2.23506e-07 
277 1 0.178544 0.214234 0.208927 55.845 -3.67618e-07 
287 1 0.178548 0.142847 0.208916 55.845 -1.4442e-07 
289 1 0.21434 0.178608 0.209046 55.845 -7.18763e-08 
291 1 0.249996 0.214282 0.209081 55.845 9.10054e-08 
301 1 0.249989 0.142907 0.209001 55.845 -1.87661e-08 
377 1 0.142794 0.178597 0.124979 55.845 -1.73295e-07 
378 1 0.14286 0.214297 0.167082 55.845 4.62942e-08 
379 1 0.178558 0.214363 0.124955 55.845 -1.81133e-07 
388 1 0.142843 0.142877 0.166977 55.845 1.57732e-07 
389 1 0.178541 0.142747 0.124976 55.845 1.00978e-07 
390 1 0.178589 0.17858 0.167009 55.845 1.04487e-08 
391 1 0.21426 0.178636 0.124956 55.845 -1.74032e-07 
392 1 0.214318 0.214319 0.167196 55.845 -7.99802e-08 
393 1 0.249994 0.214336 0.12501 55.845 -6.12591e-08 
402 1 0.214257 0.142878 0.167128 55.845 1.39157e-07 
403 1 0.250006 0.142822 0.124902 55.845 4.1715e-08 
404 1 0.249964 0.178622 0.167017 55.845 1.83938e-07 
479 1 0.142857 0.178571 0.0416667 55.845 7.93027e-08 
480 1 0.14281 0.214301 0.0825192 55.845 -8.33359e-08 
481 1 0.178571 0.214286 0.0416667 55.845 6.58457e-07 
490 1 0.142842 0.142879 0.0825976 55.845 -2.5077e-07 
491 1 0.178571 0.142857 0.0416667 55.845 -6.42908e-08 
492 1 0.178509 0.178571 0.0826479 55.845 -3.63477e-07 
493 1 0.214286 0.178571 0.0416667 55.845 1.50564e-08 
494 1 0.214203 0.214307 0.0826945 55.845 -1.58494e-07 
495 1 0.25 0.214286 0.0416667 55.845 4.87019e-08 
504 1 0.214233 0.142864 0.082613 55.845 -5.62834e-07 
505 1 0.25 0.142857 0.0416667 55.845 -8.52431e-08 
506 1 0.249962 0.178584 0.0825201 55.845 -3.36311e-07 
571 1 0.142857 0.214286 0 55.845 4.96796e-07 
576 1 0.142857 0.142857 0 55.845 -5.43591e-07 
577 1 0.178571 0.178571 0 55.845 1.25247e-07 
578 1 0.214286 0.214286 0 55.845 6.50011e-07 
583 1 0.214286 0.142857 0 55.845 -2.85682e-07 
584 1 0.25 0.178571 0 55.845 1.3535e-07 
303 1 0.285632 0.178582 0.209014 55.845 -9.11612e-09 
305 1 0.321416 0.214315 0.208965 55.845 -2.98037e-07 
315 1 0.321367 0.142859 0.209082 55.845 -2.06978e-07 
317 1 0.357167 0.17859 0.208967 55.845 -3.8988e-07 
405 1 0.285686 0.178606 0.124997 55.845 1.90945e-07 
406 1 0.285751 0.21431 0.167154 55.845 1.71986e-07 
407 1 0.321406 0.214275 0.12492 55.845 2.8225e-07 
416 1 0.285644 0.142845 0.167004 55.845 3.37531e-07 
417 1 0.321438 0.142828 0.125038 55.845 2.08649e-07 
418 1 0.321385 0.178559 0.167157 55.845 4.7859e-07 
419 1 0.357139 0.178596 0.125028 55.845 2.61312e-07 
420 1 0.357103 0.214347 0.167053 55.845 1.72138e-07 
432 1 0.35711 0.14289 0.167118 55.845 3.59673e-07 
507 1 0.285714 0.178571 0.0416667 55.845 9.26291e-08 
508 1 0.285678 0.214331 0.0826587 55.845 -4.67259e-08 
509 1 0.321429 0.214286 0.0416667 55.845 3.57351e-07 
518 1 0.28575 0.142871 0.0825906 55.845 -2.34388e-07 
519 1 0.321429 0.142857 0.0416667 55.845 3.50978e-08 
520 1 0.321453 0.1785 0.0824968 55.845 3.27182e-09 
521 1 0.357143 0.178571 0.0416667 55.845 3.16268e-07 
522 1 0.357098 0.214234 0.0825529 55.845 4.78621e-08 
534 1 0.357173 0.142869 0.0825902 55.845 -6.47139e-08 
585 1 0.285714 0.214286 0 55.845 3.47825e-07 
590 1 0.285714 0.142857 0 55.845 -1.07878e-07 
591 1 0.321429 0.178571 0 55.845 -5.21116e-08 
592 1 0.357143 0.214286 0 55.845 2.06935e-07 
598 1 0.357143 0.142857 0 55.845 -4.74749e-07 
319 1 0.392849 0.214287 0.209062 55.845 -2.06301e-07 
321 1 0.428558 0.249991 0.209044 55.845 -4.59364e-08 
331 1 0.392924 0.142838 0.208926 55.845 -1.68245e-07 
333 1 0.42861 0.178541 0.208933 55.845 -3.10179e-07 
335 1 0.464325 0.214249 0.209166 55.845 -3.09676e-07 
345 1 0.464285 0.142846 0.209036 55.845 -2.50052e-07 
606 1 0.464286 0.178571 0 55.845 -4.31374e-08 
421 1 0.392834 0.21429 0.124855 55.845 2.47189e-07 
422 1 0.392865 0.250003 0.167047 55.845 6.79663e-08 
423 1 0.42857 0.249985 0.124931 55.845 8.58551e-08 
433 1 0.392737 0.142844 0.124945 55.845 -1.1964e-07 
434 1 0.392822 0.178558 0.167024 55.845 1.6213e-07 
435 1 0.428543 0.178565 0.125017 55.845 1.08796e-07 
436 1 0.428601 0.214223 0.167132 55.845 3.06556e-08 
437 1 0.464308 0.214299 0.125044 55.845 8.62993e-08 
605 1 0.428571 0.142857 0 55.845 -5.96877e-08 
446 1 0.4286 0.142793 0.166995 55.845 -2.11747e-08 
447 1 0.464305 0.142812 0.125048 55.845 3.5013e-08 
448 1 0.464284 0.178537 0.167093 55.845 -7.97112e-08 
523 1 0.392857 0.214286 0.0416667 55.845 3.78097e-07 
524 1 0.392849 0.249973 0.0827334 55.845 -1.10639e-07 
525 1 0.428571 0.25 0.0416667 55.845 -1.38788e-07 
535 1 0.392857 0.142857 0.0416667 55.845 -6.62169e-08 
536 1 0.392818 0.178583 0.0826702 55.845 1.22495e-08 
537 1 0.428571 0.178571 0.0416667 55.845 2.02756e-07 
538 1 0.428647 0.214197 0.0825386 55.845 -1.60335e-07 
539 1 0.464286 0.214286 0.0416667 55.845 -5.80459e-08 
548 1 0.428567 0.142858 0.0826869 55.845 -9.01844e-08 
549 1 0.464286 0.142857 0.0416667 55.845 1.11686e-07 
550 1 0.464266 0.178571 0.0827188 55.845 -1.0043e-07 
593 1 0.392857 0.25 0 55.845 1.62345e-07 
599 1 0.392857 0.178571 0 55.845 -9.06335e-08 
600 1 0.428571 0.214286 0 55.845 -9.14466e-08 
3 1 1.859e-05 0.107158 0.459012 55.845 2.18192e-07 
7 1 7.428e-06 0.0357449 0.459047 55.845 -1.39983e-07 
8 1 0.0357013 0.0713696 0.459119 55.845 3.2073e-07 
9 1 0.07132 0.107127 0.459056 55.845 2.63399e-07 
13 1 0.0357365 4.76339e-05 0.459087 55.845 -5.59011e-07 
14 1 0.0714084 0.0357296 0.459095 55.845 -5.67903e-08 
15 1 0.107158 0.0715439 0.459129 55.845 4.70689e-07 
20 1 0.107125 3.03465e-05 0.45905 55.845 -2.16217e-07 
55 1 2.42744e-05 0.107155 0.375613 55.845 -9.19447e-08 
63 1 -2.33781e-05 0.0357693 0.375735 55.845 -2.13393e-07 
64 1 -6.97467e-05 0.0715472 0.417272 55.845 -9.99178e-08 
65 1 0.0357055 0.0714133 0.375625 55.845 -2.04556e-07 
66 1 0.0356843 0.107098 0.417178 55.845 4.3438e-07 
67 1 0.0714439 0.107137 0.37574 55.845 -1.8932e-07 
74 1 3.75969e-05 -1.13434e-05 0.417233 55.845 -3.38181e-07 
75 1 0.0357651 -5.99808e-05 0.37567 55.845 2.91843e-07 
76 1 0.0356629 0.0357644 0.417201 55.845 1.34591e-07 
77 1 0.0714332 0.0357733 0.375703 55.845 -1.26383e-07 
78 1 0.0713816 0.0714446 0.417286 55.845 7.5103e-07 
79 1 0.107126 0.0714485 0.375761 55.845 -2.67819e-07 
80 1 0.107112 0.10711 0.417345 55.845 8.18128e-07 
88 1 0.071409 3.81149e-05 0.417264 55.845 1.04035e-07 
89 1 0.107204 -1.13602e-05 0.375759 55.845 3.49936e-08 
90 1 0.107189 0.0357454 0.417268 55.845 3.66102e-07 
157 1 3.49175e-07 0.107166 0.292218 55.845 -4.12379e-07 
165 1 5.98388e-05 0.0357006 0.292391 55.845 -5.65701e-08 
166 1 2.49988e-05 0.0715091 0.33391 55.845 2.57778e-07 
167 1 0.0357399 0.0714053 0.292282 55.845 -2.8725e-07 
168 1 0.0357404 0.107154 0.33394 55.845 2.32826e-07 
169 1 0.0713816 0.107151 0.292336 55.845 -7.75535e-07 
176 1 2.09778e-05 -4.53988e-07 0.334006 55.845 4.80845e-07 
177 1 0.0358119 2.30304e-05 0.292356 55.845 1.17352e-07 
178 1 0.0356789 0.0357277 0.333975 55.845 4.10369e-07 
179 1 0.0714443 0.0356791 0.292354 55.845 -3.15212e-07 
180 1 0.0714606 0.0714277 0.333971 55.845 9.64905e-10 
181 1 0.107158 0.0714757 0.292338 55.845 -8.78462e-07 
182 1 0.107117 0.107182 0.333943 55.845 -1.49953e-07 
190 1 0.0715369 3.03654e-05 0.333988 55.845 5.54374e-07 
191 1 0.107136 -6.4698e-05 0.292339 55.845 -2.53035e-07 
192 1 0.107201 0.0357296 0.333974 55.845 1.4673e-07 
268 1 3.42596e-05 0.0714385 0.250451 55.845 2.87753e-07 
270 1 0.0356639 0.107142 0.250567 55.845 2.33232e-07 
278 1 3.01458e-06 2.84697e-05 0.250622 55.845 4.57076e-07 
280 1 0.0357687 0.0357389 0.250577 55.845 3.99223e-07 
282 1 0.0714666 0.0714585 0.250622 55.845 3.00185e-07 
284 1 0.107101 0.107153 0.250658 55.845 -1.34857e-07 
292 1 0.0714263 -3.11978e-05 0.250511 55.845 2.75009e-07 
294 1 0.107151 0.0357042 0.250623 55.845 1.36506e-07 
16 1 0.142845 0.107187 0.459203 55.845 3.03282e-07 
21 1 0.142819 0.0357062 0.459096 55.845 -1.08328e-07 
22 1 0.178574 0.0715222 0.45917 55.845 6.72601e-08 
23 1 0.21432 0.107074 0.459107 55.845 -2.19006e-07 
27 1 0.178517 6.24018e-05 0.459234 55.845 -5.50985e-07 
28 1 0.214338 0.0357921 0.45922 55.845 -2.68886e-07 
29 1 0.249976 0.0714324 0.459195 55.845 -1.6011e-07 
81 1 0.142792 0.107164 0.375799 55.845 -1.17514e-07 
91 1 0.14286 0.0357336 0.375745 55.845 -2.34829e-07 
92 1 0.142837 0.0715008 0.41733 55.845 4.23599e-07 
93 1 0.178483 0.0714748 0.375555 55.845 -4.83683e-07 
94 1 0.178587 0.107137 0.417291 55.845 4.62859e-07 
95 1 0.214258 0.10717 0.375781 55.845 -1.62809e-07 
102 1 0.142881 6.48228e-05 0.417309 55.845 -7.24924e-08 
103 1 0.178553 9.61445e-06 0.375744 55.845 8.75833e-08 
104 1 0.178548 0.0357984 0.417348 55.845 -2.31018e-07 
105 1 0.214217 0.035738 0.375648 55.845 -3.65999e-07 
106 1 0.214233 0.0714529 0.41731 55.845 -1.02451e-07 
107 1 0.249922 0.0714881 0.375669 55.845 -4.17807e-07 
108 1 0.250001 0.107213 0.4173 55.845 -8.32373e-11 
118 1 0.214226 3.31618e-08 0.417371 55.845 -4.13032e-07 
120 1 0.249955 0.0357639 0.417314 55.845 -2.99908e-07 
183 1 0.142877 0.10718 0.292373 55.845 -5.76285e-07 
193 1 0.142889 0.0356784 0.292308 55.845 -3.92062e-07 
194 1 0.142855 0.0714299 0.333827 55.845 -2.36125e-07 
195 1 0.17859 0.0713922 0.292183 55.845 -2.5134e-07 
196 1 0.178533 0.107108 0.333908 55.845 6.80818e-08 
197 1 0.214264 0.107169 0.292318 55.845 -2.9011e-07 
204 1 0.142853 1.31062e-06 0.333883 55.845 5.64279e-07 
205 1 0.178523 -6.11626e-06 0.292242 55.845 9.40944e-08 
206 1 0.178543 0.0357002 0.333999 55.845 3.73031e-07 
207 1 0.214245 0.0357357 0.292213 55.845 -7.18649e-08 
208 1 0.214234 0.0714726 0.333909 55.845 -2.46203e-08 
209 1 0.24998 0.0714068 0.292228 55.845 -4.38754e-07 
210 1 0.249896 0.10713 0.333955 55.845 2.22573e-07 
220 1 0.214227 4.71841e-05 0.333886 55.845 5.83859e-07 
222 1 0.249943 0.035758 0.333974 55.845 -1.01306e-08 
296 1 0.142858 0.0714725 0.250522 55.845 3.67476e-08 
298 1 0.178601 0.107159 0.25055 55.845 2.17776e-08 
306 1 0.142766 -1.06859e-05 0.250577 55.845 2.84091e-07 
308 1 0.178436 0.0357446 0.250651 55.845 3.83955e-07 
310 1 0.214271 0.0713962 0.250484 55.845 3.1585e-07 
312 1 0.249908 0.107163 0.250591 55.845 4.2323e-07 
322 1 0.214229 3.13398e-05 0.250548 55.845 5.15161e-07 
324 1 0.249968 0.0357205 0.250523 55.845 2.86365e-07 
30 1 0.285699 0.107137 0.459151 55.845 -7.24541e-08 
35 1 0.250009 8.4558e-05 0.459179 55.845 -3.31672e-07 
36 1 0.285692 0.0357176 0.459004 55.845 -9.11329e-08 
37 1 0.321353 0.0714304 0.459225 55.845 2.24248e-07 
38 1 0.357068 0.10714 0.4591 55.845 1.01609e-07 
42 1 0.321364 8.29624e-05 0.459103 55.845 -1.79202e-07 
43 1 0.357063 0.0357462 0.459008 55.845 2.15209e-07 
109 1 0.285646 0.107171 0.37566 55.845 -3.05648e-07 
119 1 0.249912 6.05108e-06 0.375737 55.845 -1.52632e-07 
121 1 0.285638 0.0357254 0.375628 55.845 -3.64347e-07 
122 1 0.285706 0.0714618 0.417283 55.845 -6.23241e-08 
123 1 0.321333 0.0713955 0.375781 55.845 -2.75385e-07 
124 1 0.321389 0.107172 0.417256 55.845 3.96784e-07 
125 1 0.357125 0.107167 0.375678 55.845 -1.80714e-08 
133 1 0.321395 3.43945e-05 0.375717 55.845 -1.88727e-07 
134 1 0.321378 0.0357295 0.417277 55.845 2.20448e-07 
135 1 0.35711 0.0357059 0.375627 55.845 -2.69256e-07 
136 1 0.357099 0.0714747 0.417302 55.845 3.83634e-07 
211 1 0.285691 0.107115 0.292413 55.845 -2.37569e-07 
221 1 0.249901 4.37296e-05 0.292281 55.845 7.71955e-08 
223 1 0.285731 0.0357076 0.292275 55.845 -4.40536e-07 
224 1 0.285628 0.0714122 0.333928 55.845 -9.34146e-09 
225 1 0.321387 0.0714774 0.292369 55.845 -4.44535e-07 
226 1 0.321382 0.107179 0.334004 55.845 1.95385e-07 
227 1 0.357124 0.107088 0.292391 55.845 -4.33048e-07 
235 1 0.321426 -4.43177e-05 0.292267 55.845 -5.23629e-07 
236 1 0.32139 0.0357104 0.333837 55.845 -9.97586e-08 
237 1 0.357164 0.0356599 0.292327 55.845 -4.24463e-07 
238 1 0.35714 0.0713787 0.333954 55.845 1.94571e-07 
326 1 0.285634 0.0714018 0.25073 55.845 2.69232e-07 
328 1 0.321422 0.107097 0.250674 55.845 4.12504e-07 
338 1 0.321391 0.0357912 0.250601 55.845 1.74923e-07 
340 1 0.357176 0.0714671 0.25069 55.845 1.11378e-07 
44 1 0.392805 0.0714146 0.459188 55.845 2.14889e-07 
45 1 0.428638 0.10722 0.459108 55.845 2.02232e-07 
47 1 0.392878 -3.03455e-05 0.459082 55.845 -1.42314e-08 
48 1 0.428577 0.0356904 0.459225 55.845 3.87867e-09 
49 1 0.464291 0.071369 0.459109 55.845 -2.33753e-07 
50 1 0.464276 1.52284e-06 0.459063 55.845 -2.88765e-08 
137 1 0.392794 0.0714294 0.37568 55.845 -2.87835e-08 
138 1 0.392843 0.107169 0.417395 55.845 5.13683e-07 
139 1 0.428554 0.107109 0.375672 55.845 -8.22527e-08 
144 1 0.392859 -2.48582e-05 0.37573 55.845 -3.21105e-07 
145 1 0.392843 0.0357284 0.417328 55.845 2.0304e-07 
146 1 0.428544 0.0357709 0.375694 55.845 -2.05058e-07 
147 1 0.428535 0.0714347 0.417284 55.845 3.05146e-08 
148 1 0.464279 0.071408 0.375674 55.845 -1.86041e-07 
149 1 0.464262 0.107085 0.417278 55.845 3.70523e-08 
150 1 0.428536 7.87762e-05 0.417291 55.845 2.51021e-07 
151 1 0.464293 2.76017e-05 0.375592 55.845 -9.25233e-08 
152 1 0.464277 0.0356849 0.417276 55.845 -1.21924e-07 
239 1 0.39288 0.0713883 0.292403 55.845 -4.38323e-07 
240 1 0.392855 0.107118 0.333899 55.845 2.48882e-07 
241 1 0.428621 0.107146 0.292217 55.845 -2.19983e-07 
246 1 0.392805 1.68008e-05 0.292239 55.845 -4.95521e-07 
247 1 0.392824 0.0356729 0.333916 55.845 1.89604e-07 
248 1 0.428596 0.0357288 0.292338 55.845 -5.58967e-07 
249 1 0.428502 0.0714554 0.333957 55.845 1.91153e-07 
250 1 0.464236 0.0715082 0.29222 55.845 -1.19168e-07 
251 1 0.464316 0.107176 0.333809 55.845 4.7101e-07 
252 1 0.428544 2.81198e-05 0.333914 55.845 1.32954e-07 
253 1 0.464189 6.87839e-05 0.292294 55.845 -4.62044e-07 
254 1 0.464325 0.0357162 0.333867 55.845 3.30972e-07 
342 1 0.392842 0.107104 0.250573 55.845 4.15204e-07 
349 1 0.392868 0.035724 0.250532 55.845 2.09371e-07 
351 1 0.428516 0.071437 0.250549 55.845 2.84198e-07 
353 1 0.464291 0.107147 0.250445 55.845 4.52407e-07 
354 1 0.428532 -2.78818e-05 0.250533 55.845 -8.61388e-08 
356 1 0.464266 0.0357388 0.250686 55.845 2.46608e-08 
1 1 -1.05383e-05 0.178549 0.459202 55.845 5.14313e-08 
2 1 0.0357482 0.214281 0.459092 55.845 -1.5721e-07 
4 1 0.0357054 0.14285 0.459182 55.845 1.1751e-07 
5 1 0.0713904 0.178526 0.459222 55.845 -3.28171e-07 
6 1 0.107117 0.214303 0.459068 55.845 1.05222e-07 
10 1 0.107135 0.142878 0.459122 55.845 -9.41526e-08 
51 1 -3.38896e-05 0.178543 0.375753 55.845 -1.48363e-07 
52 1 -1.14726e-05 0.214303 0.417254 55.845 -1.75996e-07 
53 1 0.0356782 0.214262 0.37567 55.845 -3.03273e-07 
54 1 0.0356801 0.249935 0.417311 55.845 -2.68119e-07 
56 1 -6.00385e-05 0.142893 0.417363 55.845 8.3327e-08 
57 1 0.0356968 0.142833 0.375624 55.845 5.08889e-08 
58 1 0.0356336 0.178518 0.417168 55.845 5.64101e-08 
59 1 0.0714125 0.178572 0.375777 55.845 -1.09345e-07 
60 1 0.0713743 0.214287 0.417294 55.845 1.87699e-08 
61 1 0.107141 0.214277 0.375662 55.845 -7.87428e-08 
62 1 0.107118 0.250018 0.417197 55.845 2.56226e-07 
68 1 0.0713557 0.142812 0.417269 55.845 7.03551e-07 
69 1 0.107104 0.142864 0.375753 55.845 -5.25098e-09 
70 1 0.107111 0.178619 0.417361 55.845 6.22987e-07 
153 1 -4.26011e-05 0.178571 0.292348 55.845 -6.43976e-08 
154 1 -0.000102899 0.214235 0.333852 55.845 4.40185e-07 
155 1 0.0356837 0.214285 0.292296 55.845 -2.14382e-07 
156 1 0.0357626 0.249936 0.333964 55.845 3.1569e-07 
158 1 -9.92699e-05 0.142794 0.333932 55.845 4.60211e-07 
159 1 0.0356886 0.14288 0.29231 55.845 -2.65944e-07 
160 1 0.0356782 0.178559 0.334044 55.845 4.31769e-07 
161 1 0.071398 0.17856 0.292286 55.845 -2.56571e-07 
162 1 0.071426 0.214247 0.333855 55.845 4.36612e-08 
163 1 0.107194 0.214272 0.292271 55.845 -4.41314e-07 
164 1 0.107134 0.250027 0.333957 55.845 3.19241e-07 
170 1 0.071461 0.14289 0.333976 55.845 3.18883e-07 
171 1 0.107133 0.142879 0.292209 55.845 -6.66136e-07 
172 1 0.10716 0.178575 0.333986 55.845 1.03238e-07 
256 1 -2.94628e-05 0.214209 0.250616 55.845 3.82914e-07 
258 1 0.0356722 0.250007 0.250603 55.845 1.33889e-07 
260 1 1.63259e-05 0.14283 0.250516 55.845 2.88301e-07 
262 1 0.035648 0.17854 0.250611 55.845 3.67056e-07 
264 1 0.0714214 0.214332 0.250567 55.845 3.56482e-07 
266 1 0.107167 0.249996 0.25063 55.845 2.0211e-07 
272 1 0.071377 0.142906 0.25061 55.845 2.2203e-07 
274 1 0.107186 0.178554 0.250589 55.845 3.30943e-07 
11 1 0.142799 0.178549 0.459108 55.845 1.99951e-07 
12 1 0.178535 0.214207 0.45915 55.845 2.10904e-07 
17 1 0.178563 0.142872 0.459122 55.845 1.6223e-07 
18 1 0.214292 0.178563 0.459047 55.845 -8.67739e-08 
19 1 0.249997 0.214249 0.459072 55.845 -2.63974e-07 
24 1 0.249927 0.142847 0.459136 55.845 -2.57031e-07 
71 1 0.142819 0.178541 0.375705 55.845 -5.9187e-08 
72 1 0.14285 0.214253 0.41725 55.845 2.94488e-07 
73 1 0.178574 0.21427 0.375724 55.845 -2.15344e-07 
82 1 0.142824 0.142911 0.417278 55.845 8.01255e-07 
83 1 0.178568 0.142848 0.375695 55.845 8.08882e-08 
84 1 0.178538 0.178515 0.417331 55.845 3.72338e-07 
85 1 0.214302 0.178558 0.375886 55.845 -4.65078e-08 
86 1 0.214272 0.214242 0.417321 55.845 -3.80423e-08 
87 1 0.249978 0.214235 0.375743 55.845 -4.53894e-07 
96 1 0.214273 0.142834 0.4173 55.845 2.2812e-07 
97 1 0.249986 0.142927 0.375741 55.845 5.04452e-08 
98 1 0.250033 0.178621 0.417367 55.845 -1.56579e-07 
173 1 0.142822 0.178569 0.292391 55.845 -3.99185e-07 
174 1 0.142871 0.214244 0.333946 55.845 1.70665e-07 
175 1 0.17855 0.214279 0.292269 55.845 -3.45705e-07 
184 1 0.14288 0.14291 0.333944 55.845 2.40005e-07 
185 1 0.178569 0.1429 0.292418 55.845 -2.80432e-07 
186 1 0.178617 0.178634 0.333952 55.845 3.15801e-07 
187 1 0.214295 0.178614 0.292307 55.845 -1.79646e-07 
188 1 0.214307 0.214305 0.333967 55.845 1.49438e-07 
189 1 0.249979 0.214291 0.292328 55.845 -2.90452e-07 
198 1 0.214266 0.142866 0.333907 55.845 5.37689e-07 
199 1 0.249944 0.142879 0.292393 55.845 4.88802e-08 
200 1 0.249979 0.1786 0.33399 55.845 2.38317e-07 
276 1 0.142835 0.214263 0.250583 55.845 4.37234e-08 
286 1 0.142946 0.142894 0.250623 55.845 9.7679e-09 
288 1 0.178553 0.178545 0.250635 55.845 1.89198e-07 
290 1 0.214252 0.214288 0.250587 55.845 2.33798e-07 
300 1 0.214237 0.142889 0.250524 55.845 2.53465e-07 
302 1 0.249961 0.178551 0.250596 55.845 3.34723e-07 
25 1 0.285735 0.178593 0.45915 55.845 -3.54676e-07 
26 1 0.321384 0.214298 0.459201 55.845 3.4502e-09 
31 1 0.321388 0.14282 0.459231 55.845 -1.04191e-07 
32 1 0.35711 0.178553 0.459119 55.845 2.70297e-07 
99 1 0.285738 0.178569 0.375773 55.845 -3.36308e-07 
100 1 0.285718 0.214292 0.417399 55.845 -2.76513e-07 
101 1 0.321388 0.214361 0.375704 55.845 -5.72318e-07 
110 1 0.285701 0.142883 0.417221 55.845 1.84909e-08 
111 1 0.321386 0.142918 0.375734 55.845 -2.24592e-07 
112 1 0.321408 0.178534 0.417253 55.845 8.91179e-08 
113 1 0.35714 0.178638 0.375763 55.845 -3.05953e-07 
114 1 0.357084 0.214309 0.417345 55.845 3.07586e-07 
126 1 0.357101 0.142886 0.417299 55.845 4.82077e-07 
201 1 0.28572 0.178585 0.292333 55.845 -2.70492e-07 
202 1 0.285689 0.214315 0.333955 55.845 1.03772e-07 
203 1 0.321401 0.214297 0.292442 55.845 -5.16599e-07 
212 1 0.285718 0.142929 0.33384 55.845 3.43547e-07 
213 1 0.321451 0.142868 0.292331 55.845 -4.6272e-07 
214 1 0.321396 0.178585 0.333914 55.845 -2.70699e-08 
215 1 0.357136 0.178609 0.292411 55.845 -6.14769e-07 