ITEM: TIMESTEP
4600
ITEM: NUMBER OF ATOMS
5880
ITEM: BOX BOUNDS pp pp ff
-27.9639 27.9639
-27.9639 27.9639
0 34.092
ITEM: ATOMS id type xs ys zs mass q 
259 1 -2.72511e-05 0.107157 0.208756 55.845 -3.64595e-07 
267 1 5.0835e-05 0.0356687 0.208567 55.845 -3.7539e-07 
269 1 0.0356767 0.0714423 0.208612 55.845 -4.85641e-07 
271 1 0.0713279 0.10711 0.208693 55.845 -3.96664e-07 
279 1 0.0357873 -8.31113e-05 0.208701 55.845 -1.95025e-07 
281 1 0.0713506 0.0356208 0.208532 55.845 -1.89261e-07 
283 1 0.107174 0.0714947 0.208627 55.845 -2.05296e-07 
293 1 0.10718 -2.57456e-05 0.208733 55.845 -4.51691e-07 
361 1 -1.37674e-05 0.107144 0.123966 55.845 -2.33054e-07 
369 1 3.82878e-05 0.0357128 0.124089 55.845 4.73726e-08 
370 1 -2.58991e-05 0.0715025 0.166352 55.845 5.29675e-08 
371 1 0.0357166 0.0714454 0.124035 55.845 -3.48644e-07 
372 1 0.0356983 0.107175 0.166407 55.845 8.31277e-08 
373 1 0.0714607 0.107073 0.124136 55.845 -5.05839e-07 
380 1 1.09231e-06 2.7099e-05 0.166234 55.845 1.66296e-07 
381 1 0.0357343 5.54795e-05 0.12418 55.845 6.63269e-08 
382 1 0.0357273 0.0358285 0.166477 55.845 2.38134e-07 
383 1 0.0714709 0.0357193 0.124118 55.845 -3.41533e-08 
384 1 0.0714704 0.0713837 0.166381 55.845 8.97323e-09 
385 1 0.107127 0.0714045 0.12415 55.845 -3.03657e-08 
386 1 0.107166 0.107176 0.166367 55.845 6.26291e-08 
394 1 0.0714977 -1.85163e-05 0.166395 55.845 4.21595e-07 
395 1 0.107126 -7.92727e-05 0.124098 55.845 -1.76338e-07 
396 1 0.107179 0.0356765 0.166374 55.845 9.71597e-08 
463 1 0 0.107143 0.0416667 55.845 3.80213e-07 
471 1 0 0.0357143 0.0416667 55.845 6.83023e-07 
472 1 -1.43292e-05 0.071378 0.0829651 55.845 -4.75962e-07 
473 1 0.0357143 0.0714286 0.0416667 55.845 2.28739e-07 
474 1 0.0357043 0.107128 0.0829809 55.845 -2.88454e-07 
475 1 0.0714286 0.107143 0.0416667 55.845 1.12798e-07 
482 1 -1.69563e-05 -8.85588e-07 0.08294 55.845 -3.00723e-07 
483 1 0.0357143 0 0.0416667 55.845 6.81816e-07 
484 1 0.0357294 0.03573 0.0829762 55.845 -3.36986e-07 
485 1 0.0714286 0.0357143 0.0416667 55.845 5.74521e-07 
486 1 0.0714213 0.0714028 0.0829044 55.845 -3.11995e-07 
487 1 0.107143 0.0714286 0.0416667 55.845 4.35441e-07 
488 1 0.107229 0.107138 0.0830853 55.845 -2.63144e-07 
496 1 0.0715081 -4.31462e-05 0.0829768 55.845 -2.88333e-08 
497 1 0.107143 0 0.0416667 55.845 4.9676e-07 
498 1 0.107135 0.0357133 0.0829011 55.845 -4.03455e-07 
567 1 0 0.0714286 0 55.845 -3.7562e-07 
568 1 0.0357143 0.107143 0 55.845 -2.87073e-07 
572 1 0 0 0 55.845 -1.66894e-07 
573 1 0.0357143 0.0357143 0 55.845 -2.05977e-07 
574 1 0.0714286 0.0714286 0 55.845 -3.32239e-07 
575 1 0.107143 0.107143 0 55.845 -1.8026e-07 
579 1 0.0714286 0 0 55.845 -1.29278e-07 
580 1 0.107143 0.0357143 0 55.845 -2.25993e-07 
285 1 0.142942 0.107108 0.208771 55.845 -9.2565e-08 
295 1 0.142866 0.0357066 0.208604 55.845 -5.19814e-07 
297 1 0.17854 0.0714087 0.208689 55.845 -3.64041e-07 
299 1 0.21424 0.107109 0.20874 55.845 -4.76161e-07 
307 1 0.178587 1.73853e-06 0.208692 55.845 -7.31979e-07 
309 1 0.214302 0.0357728 0.208769 55.845 -3.07359e-07 
311 1 0.24999 0.0713925 0.208668 55.845 -2.87819e-07 
387 1 0.142971 0.107141 0.124084 55.845 5.3523e-08 
397 1 0.142894 0.0357491 0.124045 55.845 -1.08329e-07 
398 1 0.142907 0.0714679 0.166476 55.845 -2.568e-08 
399 1 0.17861 0.0713986 0.124061 55.845 -2.46601e-08 
400 1 0.178517 0.107114 0.166368 55.845 1.52575e-07 
401 1 0.214246 0.107102 0.124156 55.845 -2.11569e-07 
408 1 0.142861 1.72331e-05 0.166271 55.845 6.76002e-08 
409 1 0.178625 9.59711e-06 0.124102 55.845 -3.66835e-07 
410 1 0.178641 0.0357317 0.166433 55.845 8.46078e-08 
411 1 0.2143 0.0357253 0.124035 55.845 -1.33499e-08 
412 1 0.214221 0.0714705 0.16648 55.845 2.13195e-07 
413 1 0.249961 0.0713656 0.124059 55.845 -1.19284e-08 
414 1 0.249909 0.107097 0.166425 55.845 1.51275e-07 
424 1 0.214272 0.000121102 0.166354 55.845 3.84939e-07 
426 1 0.250005 0.0357001 0.166458 55.845 4.53649e-07 
489 1 0.142857 0.107143 0.0416667 55.845 5.02674e-07 
499 1 0.142857 0.0357143 0.0416667 55.845 5.13497e-07 
500 1 0.142818 0.0713882 0.0831031 55.845 -4.68534e-07 
501 1 0.178571 0.0714286 0.0416667 55.845 5.65267e-07 
502 1 0.178577 0.107134 0.0829363 55.845 -4.42362e-07 
503 1 0.214286 0.107143 0.0416667 55.845 4.60626e-07 
510 1 0.142839 -6.77217e-06 0.0829535 55.845 -4.62168e-07 
511 1 0.178571 0 0.0416667 55.845 4.18471e-07 
512 1 0.178651 0.0356926 0.0828751 55.845 -5.20029e-07 
513 1 0.214286 0.0357143 0.0416667 55.845 6.06845e-07 
514 1 0.214361 0.0714055 0.0828005 55.845 -3.31794e-07 
515 1 0.25 0.0714286 0.0416667 55.845 5.62718e-07 
516 1 0.250048 0.107139 0.0829981 55.845 -2.38691e-07 
526 1 0.214333 -3.22952e-05 0.0829099 55.845 -2.64021e-07 
528 1 0.250062 0.0356592 0.0828365 55.845 -5.46134e-08 
581 1 0.142857 0.0714286 0 55.845 -2.72153e-07 
582 1 0.178571 0.107143 0 55.845 -2.42633e-07 
586 1 0.142857 0 0 55.845 -3.19051e-07 
587 1 0.178571 0.0357143 0 55.845 -3.17255e-07 
588 1 0.214286 0.0714286 0 55.845 -2.25072e-07 
589 1 0.25 0.107143 0 55.845 -1.836e-07 
594 1 0.214286 0 0 55.845 -2.61302e-07 
595 1 0.25 0.0357143 0 55.845 -9.24461e-08 
313 1 0.285743 0.107197 0.208751 55.845 -5.89225e-07 
323 1 0.249951 -3.20462e-05 0.208631 55.845 -2.01469e-07 
325 1 0.28573 0.0357615 0.208776 55.845 -2.25234e-07 
327 1 0.321451 0.0713881 0.208633 55.845 -3.66522e-07 
329 1 0.357115 0.107276 0.208711 55.845 -4.91747e-07 
337 1 0.321419 2.29488e-05 0.208691 55.845 -5.0947e-07 
339 1 0.357201 0.0357277 0.208715 55.845 -3.04312e-07 
415 1 0.285699 0.107114 0.124116 55.845 -3.32984e-07 
425 1 0.250029 -2.06428e-05 0.123981 55.845 -1.13467e-07 
427 1 0.285709 0.0357617 0.124053 55.845 -7.17197e-08 
428 1 0.285722 0.0714371 0.166401 55.845 4.07759e-07 
429 1 0.32157 0.0714467 0.124006 55.845 -3.39491e-08 
430 1 0.321443 0.107124 0.166278 55.845 5.21807e-07 
431 1 0.35714 0.107146 0.124053 55.845 -9.08005e-08 
439 1 0.321433 0.000126573 0.124113 55.845 -3.99978e-07 
440 1 0.321482 0.0357922 0.166364 55.845 2.86767e-07 
441 1 0.357123 0.0356971 0.124062 55.845 -1.16078e-07 
442 1 0.357135 0.0714511 0.166437 55.845 3.99174e-07 
517 1 0.285714 0.107143 0.0416667 55.845 4.40059e-07 
527 1 0.25 0 0.0416667 55.845 4.66368e-07 
529 1 0.285714 0.0357143 0.0416667 55.845 4.78596e-07 
530 1 0.285726 0.07146 0.0829516 55.845 8.05845e-08 
531 1 0.321429 0.0714286 0.0416667 55.845 5.88836e-07 
532 1 0.321394 0.107222 0.0828277 55.845 -7.11451e-08 
533 1 0.357143 0.107143 0.0416667 55.845 6.41933e-07 
603 1 0.357143 0.0714286 0 55.845 -1.11074e-07 
541 1 0.321429 0 0.0416667 55.845 2.30491e-07 
542 1 0.321398 0.0357503 0.0828499 55.845 -1.29043e-07 
543 1 0.357143 0.0357143 0.0416667 55.845 4.16783e-07 
544 1 0.357137 0.07144 0.0828149 55.845 -8.1408e-08 
602 1 0.321429 0.0357143 0 55.845 -1.52233e-07 
596 1 0.285714 0.0714286 0 55.845 -3.9121e-08 
597 1 0.321429 0.107143 0 55.845 -9.49184e-08 
612 1 0.464286 0.0357143 0 55.845 -1.40857e-07 
611 1 0.428571 0 0 55.845 -1.69466e-07 
610 1 0.464286 0.107143 0 55.845 -2.60146e-07 
609 1 0.428571 0.0714286 0 55.845 -2.02505e-07 
608 1 0.392857 0.0357143 0 55.845 -1.90506e-07 
341 1 0.392871 0.0714283 0.208643 55.845 -2.09184e-07 
343 1 0.428623 0.107169 0.20863 55.845 -6.26332e-07 
348 1 0.39294 -4.85536e-05 0.208725 55.845 -1.22193e-07 
350 1 0.428583 0.0356613 0.2088 55.845 1.38108e-07 
352 1 0.464298 0.0713907 0.208657 55.845 -1.16454e-07 
355 1 0.464381 -7.24674e-06 0.20874 55.845 1.23505e-07 
443 1 0.392815 0.0714444 0.124237 55.845 7.9321e-08 
444 1 0.392847 0.10716 0.166454 55.845 2.60713e-07 
445 1 0.42853 0.107152 0.124141 55.845 -3.71115e-07 
604 1 0.392857 0.107143 0 55.845 -2.0863e-07 
450 1 0.392857 -2.09492e-05 0.123992 55.845 -1.50933e-09 
451 1 0.392813 0.0356008 0.166375 55.845 6.99573e-08 
452 1 0.428496 0.0357089 0.124173 55.845 -4.47367e-08 
453 1 0.428583 0.0714697 0.166433 55.845 7.84288e-08 
454 1 0.464233 0.0713209 0.124073 55.845 -2.11212e-07 
455 1 0.464233 0.107173 0.166453 55.845 7.5046e-08 
456 1 0.428613 -2.28288e-05 0.166415 55.845 -1.31358e-07 
457 1 0.46427 -7.49475e-05 0.124066 55.845 -3.58151e-08 
458 1 0.464243 0.0356844 0.166367 55.845 5.16349e-08 
545 1 0.392857 0.0714286 0.0416667 55.845 5.75958e-07 
546 1 0.392831 0.107154 0.0828252 55.845 -3.64311e-07 
547 1 0.428571 0.107143 0.0416667 55.845 3.73381e-07 
552 1 0.392857 0 0.0416667 55.845 4.27826e-07 
553 1 0.392836 0.0357154 0.0828531 55.845 -2.52825e-07 
554 1 0.428571 0.0357143 0.0416667 55.845 4.21272e-07 
555 1 0.428652 0.0714253 0.0829191 55.845 -1.56447e-07 
556 1 0.464286 0.0714286 0.0416667 55.845 2.67238e-07 
557 1 0.464257 0.107064 0.0827997 55.845 -2.96384e-07 
558 1 0.428619 5.37396e-05 0.0828977 55.845 -2.23161e-07 
559 1 0.464286 0 0.0416667 55.845 4.03729e-07 
560 1 0.464281 0.03575 0.0829214 55.845 -5.91618e-08 
255 1 -2.08545e-05 0.178609 0.208739 55.845 -4.38512e-07 
257 1 0.0357036 0.214313 0.208653 55.845 -2.25645e-07 
261 1 0.0356964 0.142874 0.208652 55.845 -4.84161e-07 
263 1 0.0714312 0.178537 0.208786 55.845 -2.41948e-07 
265 1 0.107155 0.214303 0.208602 55.845 -1.67552e-07 
273 1 0.10717 0.142829 0.20885 55.845 -1.93592e-07 
357 1 -8.88229e-06 0.178551 0.124035 55.845 -4.58714e-08 
358 1 -4.94366e-05 0.214232 0.166358 55.845 4.71886e-08 
359 1 0.0356837 0.214225 0.123887 55.845 -1.03442e-08 
360 1 0.0357154 0.249968 0.166409 55.845 1.95974e-07 
362 1 -1.68026e-05 0.142873 0.166422 55.845 3.76196e-07 
363 1 0.0358014 0.142845 0.124175 55.845 -4.10729e-07 
364 1 0.0357024 0.178547 0.16643 55.845 3.28185e-07 
365 1 0.0714849 0.178533 0.124047 55.845 -1.15926e-07 
366 1 0.071336 0.214241 0.166385 55.845 1.70665e-07 
367 1 0.107115 0.214297 0.124112 55.845 1.98528e-08 
368 1 0.107129 0.249917 0.166416 55.845 9.62115e-08 
374 1 0.071437 0.142847 0.166413 55.845 1.19958e-07 
375 1 0.107216 0.142901 0.124178 55.845 -1.1058e-07 
376 1 0.107162 0.178551 0.166384 55.845 3.35572e-08 
459 1 0 0.178571 0.0416667 55.845 5.68606e-07 
460 1 -6.8099e-05 0.214246 0.0828901 55.845 -4.32303e-07 
461 1 0.0357143 0.214286 0.0416667 55.845 4.64083e-07 
462 1 0.0357566 0.249922 0.0829418 55.845 -3.39208e-07 
464 1 5.95391e-05 0.142896 0.0830232 55.845 -2.44861e-08 
465 1 0.0357143 0.142857 0.0416667 55.845 2.71461e-07 
466 1 0.0357852 0.178465 0.0829697 55.845 -1.04548e-07 
467 1 0.0714286 0.178571 0.0416667 55.845 4.31381e-07 
468 1 0.0714484 0.214302 0.0829133 55.845 -1.00176e-07 
469 1 0.107143 0.214286 0.0416667 55.845 4.30108e-07 
470 1 0.107236 0.250047 0.082793 55.845 -2.62628e-07 
476 1 0.0714208 0.142915 0.082886 55.845 2.6252e-08 
477 1 0.107143 0.142857 0.0416667 55.845 3.79119e-07 
478 1 0.107124 0.178555 0.082949 55.845 -2.34161e-07 
561 1 0 0.214286 0 55.845 -3.17843e-07 
562 1 0.0357143 0.25 0 55.845 -2.25322e-07 
563 1 0 0.142857 0 55.845 -1.50359e-07 
564 1 0.0357143 0.178571 0 55.845 -9.65746e-08 
565 1 0.0714286 0.214286 0 55.845 -1.95482e-07 
566 1 0.107143 0.25 0 55.845 -1.69333e-07 
569 1 0.0714286 0.142857 0 55.845 -1.63586e-07 
570 1 0.107143 0.178571 0 55.845 -8.88444e-08 
275 1 0.142882 0.178571 0.208692 55.845 -1.62497e-07 
277 1 0.178629 0.214303 0.208593 55.845 -1.02876e-07 
287 1 0.178558 0.142802 0.208761 55.845 -1.66983e-07 
289 1 0.214343 0.178582 0.208665 55.845 -8.62625e-08 
291 1 0.249976 0.214268 0.208676 55.845 1.79352e-07 
301 1 0.249942 0.142857 0.208804 55.845 -4.33976e-07 
377 1 0.142911 0.178564 0.124063 55.845 1.30062e-07 
378 1 0.142882 0.214299 0.166325 55.845 -2.12887e-07 
379 1 0.178557 0.214265 0.124115 55.845 1.05996e-07 
388 1 0.14284 0.142879 0.166405 55.845 1.08652e-07 
389 1 0.178539 0.142776 0.124098 55.845 -1.5832e-08 
390 1 0.17865 0.178551 0.166462 55.845 3.03037e-08 
391 1 0.21432 0.17853 0.124025 55.845 1.00771e-07 
392 1 0.21431 0.214295 0.166289 55.845 7.32525e-08 
393 1 0.249957 0.214311 0.124091 55.845 1.13236e-07 
402 1 0.214282 0.142828 0.166434 55.845 2.15215e-07 
403 1 0.250007 0.142863 0.124109 55.845 -3.51466e-07 
404 1 0.249994 0.178652 0.166456 55.845 2.89857e-07 
479 1 0.142857 0.178571 0.0416667 55.845 5.78554e-07 
480 1 0.142828 0.214238 0.0829207 55.845 -4.16492e-07 
481 1 0.178571 0.214286 0.0416667 55.845 5.86587e-07 
490 1 0.142901 0.142903 0.08288 55.845 -2.81593e-07 
491 1 0.178571 0.142857 0.0416667 55.845 5.56368e-07 
492 1 0.178595 0.178588 0.0828318 55.845 -4.46158e-07 
493 1 0.214286 0.178571 0.0416667 55.845 5.82221e-07 
494 1 0.214343 0.214238 0.0828798 55.845 -1.64544e-07 
495 1 0.25 0.214286 0.0416667 55.845 5.18586e-07 
504 1 0.214357 0.142839 0.0828521 55.845 -3.61583e-07 
505 1 0.25 0.142857 0.0416667 55.845 3.53127e-07 
506 1 0.250044 0.178608 0.0829063 55.845 -1.38054e-07 
571 1 0.142857 0.214286 0 55.845 -2.54714e-07 
576 1 0.142857 0.142857 0 55.845 -1.90225e-07 
577 1 0.178571 0.178571 0 55.845 -2.24315e-07 
578 1 0.214286 0.214286 0 55.845 -1.26053e-07 
583 1 0.214286 0.142857 0 55.845 -3.09376e-07 
584 1 0.25 0.178571 0 55.845 -1.498e-07 
303 1 0.285766 0.178619 0.208735 55.845 -2.55192e-07 
305 1 0.321473 0.214218 0.208633 55.845 -3.57147e-07 
315 1 0.321469 0.142972 0.208749 55.845 -7.07544e-07 
317 1 0.357233 0.178646 0.208804 55.845 -6.26566e-07 
405 1 0.285745 0.178461 0.124073 55.845 -1.7214e-07 
406 1 0.285763 0.214209 0.166148 55.845 2.07217e-07 
407 1 0.321405 0.21426 0.124013 55.845 -2.29908e-07 
416 1 0.285698 0.142863 0.166331 55.845 2.89481e-07 
417 1 0.321402 0.142866 0.12414 55.845 -3.83089e-07 
418 1 0.321523 0.178531 0.166331 55.845 2.71585e-07 
419 1 0.357154 0.178655 0.123971 55.845 -2.71729e-07 
420 1 0.357152 0.214258 0.166406 55.845 8.96933e-08 
432 1 0.357141 0.142938 0.166324 55.845 4.35944e-07 
507 1 0.285714 0.178571 0.0416667 55.845 3.66515e-07 
508 1 0.285677 0.214236 0.0828392 55.845 -1.27178e-09 
509 1 0.321429 0.214286 0.0416667 55.845 3.14517e-07 
518 1 0.285683 0.142793 0.0829338 55.845 -2.05044e-07 
519 1 0.321429 0.142857 0.0416667 55.845 4.23409e-07 
520 1 0.321436 0.178581 0.0829546 55.845 -3.63429e-07 
521 1 0.357143 0.178571 0.0416667 55.845 4.18274e-07 
522 1 0.357137 0.214323 0.0828915 55.845 -3.70872e-07 
534 1 0.357193 0.142924 0.0829082 55.845 -3.84602e-07 
585 1 0.285714 0.214286 0 55.845 -1.11511e-07 
590 1 0.285714 0.142857 0 55.845 -2.519e-07 
591 1 0.321429 0.178571 0 55.845 -2.98478e-07 
592 1 0.357143 0.214286 0 55.845 -3.2043e-07 
598 1 0.357143 0.142857 0 55.845 -3.22867e-07 
319 1 0.392877 0.214279 0.208628 55.845 -4.19216e-07 
321 1 0.428529 0.25011 0.208814 55.845 -4.77755e-07 
331 1 0.392724 0.142955 0.208593 55.845 -7.00642e-07 
333 1 0.42847 0.178582 0.208608 55.845 -5.08654e-07 
335 1 0.464265 0.214191 0.208728 55.845 -3.82111e-07 
345 1 0.464298 0.142886 0.208593 55.845 -8.47233e-07 
606 1 0.464286 0.178571 0 55.845 -1.26874e-07 
421 1 0.392853 0.214313 0.124027 55.845 -1.25597e-07 
422 1 0.392739 0.25008 0.166261 55.845 2.32948e-07 
423 1 0.428618 0.250027 0.124126 55.845 -2.34692e-07 
433 1 0.392836 0.142857 0.124067 55.845 -2.59408e-07 
434 1 0.392841 0.178603 0.166278 55.845 3.86665e-07 
435 1 0.428533 0.178624 0.124123 55.845 -2.31904e-07 
436 1 0.428499 0.214381 0.166377 55.845 5.3341e-07 
437 1 0.464301 0.214254 0.124041 55.845 -2.54313e-07 
605 1 0.428571 0.142857 0 55.845 -3.07414e-07 
446 1 0.428571 0.142858 0.166365 55.845 1.7835e-07 
447 1 0.46429 0.142847 0.123958 55.845 -5.09847e-07 
448 1 0.464174 0.17859 0.166284 55.845 5.48615e-07 
523 1 0.392857 0.214286 0.0416667 55.845 4.6351e-07 
524 1 0.392906 0.250029 0.0828798 55.845 -3.60201e-07 
525 1 0.428571 0.25 0.0416667 55.845 4.69459e-07 
535 1 0.392857 0.142857 0.0416667 55.845 5.30223e-07 
536 1 0.392934 0.178554 0.0828618 55.845 -4.31846e-07 
537 1 0.428571 0.178571 0.0416667 55.845 4.9961e-07 
538 1 0.428608 0.21429 0.08284 55.845 -1.63643e-08 
539 1 0.464286 0.214286 0.0416667 55.845 4.64506e-07 
548 1 0.428562 0.14284 0.082924 55.845 -3.54918e-07 
549 1 0.464286 0.142857 0.0416667 55.845 3.37456e-07 
550 1 0.464257 0.178555 0.0828819 55.845 -4.24532e-09 
593 1 0.392857 0.25 0 55.845 -2.1687e-07 
599 1 0.392857 0.178571 0 55.845 -2.93389e-07 
600 1 0.428571 0.214286 0 55.845 -1.61699e-07 
3 1 -2.95056e-05 0.107176 0.458282 55.845 -1.16238e-07 
7 1 2.39075e-05 0.0356786 0.458417 55.845 -4.77528e-07 
8 1 0.0356873 0.0714187 0.458358 55.845 -4.10642e-07 
9 1 0.0714132 0.107153 0.458275 55.845 -2.6778e-07 
13 1 0.0357259 7.34482e-05 0.458315 55.845 -1.48162e-07 
14 1 0.0714572 0.0357806 0.458301 55.845 -2.29573e-07 
15 1 0.107076 0.0714507 0.458411 55.845 -2.69418e-07 
20 1 0.107155 -2.54228e-05 0.458314 55.845 -1.94511e-07 
55 1 -1.98422e-05 0.107194 0.375482 55.845 -2.63458e-07 
63 1 0.000109516 0.0356841 0.375518 55.845 -2.60799e-07 
64 1 4.72061e-05 0.0714731 0.416952 55.845 1.14394e-07 
65 1 0.035726 0.0714661 0.375471 55.845 -5.99274e-07 
66 1 0.0356906 0.107198 0.416984 55.845 4.92754e-08 
67 1 0.0714244 0.10716 0.375449 55.845 -6.14854e-07 
74 1 7.05124e-05 8.11403e-06 0.417017 55.845 3.62611e-07 
75 1 0.0357332 -4.19555e-05 0.375616 55.845 -2.60365e-07 
76 1 0.0357715 0.0356732 0.416898 55.845 4.31711e-07 
77 1 0.0714425 0.0356983 0.375515 55.845 -3.25046e-07 
78 1 0.071416 0.0714384 0.417004 55.845 5.16905e-07 
79 1 0.107112 0.0714593 0.3755 55.845 -4.56056e-07 
80 1 0.107182 0.107107 0.417098 55.845 4.3208e-07 
88 1 0.0714273 6.09941e-05 0.416887 55.845 5.02927e-07 
89 1 0.107078 -6.64229e-05 0.375549 55.845 -4.28544e-07 
90 1 0.107105 0.035738 0.416944 55.845 4.81891e-07 
157 1 6.10624e-05 0.107178 0.291029 55.845 -5.60648e-08 
165 1 6.65708e-05 0.035655 0.290989 55.845 -5.55765e-08 
166 1 3.65065e-05 0.0714868 0.33308 55.845 1.31423e-07 
167 1 0.0356553 0.0714386 0.291018 55.845 -2.0287e-07 
168 1 0.0357038 0.107219 0.333198 55.845 2.23977e-07 
169 1 0.071388 0.107108 0.290931 55.845 -2.31687e-07 
176 1 8.23595e-05 4.6113e-06 0.333157 55.845 1.3851e-07 
177 1 0.0357456 -7.42907e-05 0.290998 55.845 9.44173e-08 
178 1 0.0357358 0.0357087 0.33303 55.845 3.886e-07 
179 1 0.0714955 0.035692 0.290953 55.845 -9.80107e-09 
180 1 0.0714574 0.071397 0.333168 55.845 5.08712e-07 
181 1 0.107083 0.0714363 0.291073 55.845 -9.71965e-08 
182 1 0.10712 0.107188 0.333147 55.845 4.85571e-07 
190 1 0.0714066 -3.14376e-05 0.333081 55.845 4.44062e-07 
191 1 0.107192 2.24851e-06 0.291 55.845 -1.61562e-07 
192 1 0.107123 0.0356911 0.333064 55.845 4.1232e-07 
268 1 4.49635e-05 0.0714061 0.249912 55.845 3.36225e-07 
270 1 0.0357717 0.10714 0.249852 55.845 1.70406e-07 
278 1 4.86635e-05 3.23751e-05 0.249896 55.845 2.7645e-07 
280 1 0.0357251 0.0356416 0.249877 55.845 4.10625e-07 
282 1 0.0713997 0.071354 0.249875 55.845 3.06641e-07 
284 1 0.107059 0.107063 0.249976 55.845 2.59013e-07 
292 1 0.071448 -4.4911e-05 0.250047 55.845 4.35128e-07 
294 1 0.107147 0.0357113 0.249902 55.845 3.29988e-07 
16 1 0.142813 0.10716 0.458343 55.845 -1.95152e-07 
21 1 0.142698 0.0357555 0.458445 55.845 -4.22817e-07 
22 1 0.17853 0.071455 0.458322 55.845 -4.04431e-07 
23 1 0.214229 0.107198 0.458296 55.845 -4.10376e-07 
27 1 0.178477 5.65686e-05 0.458289 55.845 -4.08795e-07 
28 1 0.214283 0.0357334 0.458232 55.845 -2.9453e-07 
29 1 0.249932 0.0715076 0.458387 55.845 -2.45521e-07 
81 1 0.142836 0.107141 0.375508 55.845 -2.47115e-07 
91 1 0.142729 0.0356678 0.375487 55.845 -4.90957e-07 
92 1 0.142782 0.0714231 0.416958 55.845 5.38986e-07 
93 1 0.178456 0.071399 0.375625 55.845 -4.14889e-07 
94 1 0.178547 0.107188 0.417018 55.845 2.18012e-07 
95 1 0.214216 0.10717 0.375366 55.845 -4.56828e-07 
102 1 0.142763 -3.20037e-05 0.416944 55.845 1.41284e-07 
103 1 0.178541 -1.77856e-05 0.375499 55.845 -4.30946e-07 
104 1 0.178399 0.0356354 0.417009 55.845 2.73413e-07 
105 1 0.214275 0.0356845 0.375606 55.845 -2.53347e-07 
106 1 0.214252 0.0714628 0.416768 55.845 3.49716e-07 
107 1 0.250039 0.0714945 0.375405 55.845 -5.57208e-07 
108 1 0.249965 0.107142 0.416891 55.845 -2.74982e-08 
118 1 0.214287 -3.97142e-05 0.416986 55.845 3.15257e-07 
120 1 0.249947 0.0357756 0.416903 55.845 4.23304e-07 
183 1 0.142779 0.107156 0.291017 55.845 1.57512e-07 
193 1 0.142753 0.0357011 0.290927 55.845 -2.71662e-07 
194 1 0.142838 0.0714486 0.333088 55.845 3.94299e-07 
195 1 0.178613 0.0713845 0.2911 55.845 -3.6718e-08 
196 1 0.178517 0.107128 0.333173 55.845 1.88885e-07 
197 1 0.214381 0.107161 0.291257 55.845 -9.74019e-08 
204 1 0.142875 -4.50038e-05 0.333081 55.845 3.05581e-08 
205 1 0.1786 -1.84516e-05 0.291107 55.845 -2.42303e-07 
206 1 0.178498 0.0356524 0.333106 55.845 1.53583e-07 
207 1 0.21427 0.0356425 0.291187 55.845 3.36979e-08 
208 1 0.21432 0.0714821 0.333195 55.845 2.35432e-07 
209 1 0.249976 0.0714041 0.291056 55.845 -1.60684e-07 
210 1 0.25007 0.107164 0.333341 55.845 3.48819e-08 
220 1 0.214275 -7.38991e-06 0.333095 55.845 2.96982e-07 
222 1 0.249965 0.0357193 0.333068 55.845 5.93341e-07 
296 1 0.142814 0.0714754 0.250127 55.845 3.17174e-07 
298 1 0.178598 0.107112 0.250085 55.845 2.88592e-07 
306 1 0.142927 -2.45154e-05 0.249935 55.845 1.47977e-07 
308 1 0.178553 0.0356921 0.249972 55.845 2.52883e-07 
310 1 0.214302 0.0713811 0.250087 55.845 3.24036e-07 
312 1 0.249968 0.107118 0.249933 55.845 9.96044e-08 
322 1 0.21429 2.87186e-05 0.249978 55.845 5.0641e-07 
324 1 0.250002 0.0356554 0.249992 55.845 5.90592e-07 
30 1 0.285705 0.107146 0.458209 55.845 -3.28034e-07 
35 1 0.250019 -6.65201e-05 0.458179 55.845 -1.34645e-07 
36 1 0.285721 0.0357972 0.45824 55.845 -1.94059e-07 
37 1 0.321407 0.0714001 0.458173 55.845 -2.81113e-07 
38 1 0.357112 0.107202 0.458244 55.845 -3.10995e-07 
42 1 0.321402 -2.11017e-05 0.458148 55.845 -4.9425e-07 
43 1 0.357146 0.0356987 0.458213 55.845 -3.95951e-07 
109 1 0.285716 0.1072 0.375548 55.845 -6.92882e-07 
119 1 0.250012 7.5123e-05 0.375495 55.845 -2.43747e-07 
121 1 0.285714 0.0357611 0.375446 55.845 -4.72723e-07 
122 1 0.285776 0.0714097 0.416997 55.845 3.5409e-07 
123 1 0.321414 0.0713723 0.375365 55.845 -5.2086e-07 
124 1 0.321455 0.107153 0.416841 55.845 2.45414e-07 
125 1 0.357078 0.107094 0.375397 55.845 -2.58313e-07 
133 1 0.321419 3.86819e-05 0.375476 55.845 -6.14597e-07 
134 1 0.321362 0.0357318 0.41683 55.845 1.20057e-07 
135 1 0.357199 0.0356045 0.375408 55.845 -4.33109e-07 
136 1 0.357083 0.0714077 0.416802 55.845 3.84674e-07 
211 1 0.285722 0.107232 0.291091 55.845 -3.68177e-07 
221 1 0.250018 -2.20931e-05 0.291058 55.845 2.57874e-08 
223 1 0.285772 0.0357068 0.291151 55.845 -9.19824e-08 
224 1 0.285671 0.0714834 0.333057 55.845 4.01906e-07 
225 1 0.321386 0.0713698 0.290895 55.845 -1.35106e-07 
226 1 0.321367 0.107032 0.333103 55.845 2.76407e-07 
227 1 0.357108 0.107181 0.290947 55.845 -1.05674e-07 
235 1 0.321436 -7.22042e-05 0.29113 55.845 -2.20904e-07 
236 1 0.321464 0.0357272 0.333114 55.845 2.69198e-07 
237 1 0.357159 0.035709 0.290964 55.845 -7.38884e-08 
238 1 0.35715 0.0714522 0.333 55.845 3.91522e-07 
326 1 0.285661 0.0715154 0.24986 55.845 4.11092e-07 
328 1 0.321381 0.107089 0.249936 55.845 5.12789e-07 
338 1 0.321431 0.0356892 0.24991 55.845 3.34696e-07 
340 1 0.357147 0.0714433 0.249875 55.845 5.95089e-07 
44 1 0.392678 0.0714043 0.45831 55.845 -1.92083e-07 
45 1 0.428601 0.107134 0.45833 55.845 -3.92551e-07 
47 1 0.392822 1.00988e-05 0.458247 55.845 -2.1745e-07 
48 1 0.428459 0.0356588 0.458268 55.845 7.31248e-08 
49 1 0.464259 0.0714168 0.4583 55.845 -2.81214e-08 
50 1 0.464274 -4.73032e-05 0.458266 55.845 1.29582e-07 
137 1 0.392809 0.0714107 0.375313 55.845 -3.5523e-07 
138 1 0.392836 0.10716 0.416887 55.845 2.58437e-07 
139 1 0.428565 0.107157 0.375342 55.845 -5.49769e-07 
144 1 0.392914 -2.69804e-05 0.375471 55.845 -2.5801e-07 
145 1 0.392929 0.0357204 0.41684 55.845 1.24736e-07 
146 1 0.428539 0.0356914 0.375486 55.845 -1.04248e-07 
147 1 0.428488 0.0715249 0.417045 55.845 2.06764e-07 
148 1 0.464284 0.0715187 0.375594 55.845 -3.07186e-07 
149 1 0.464281 0.10723 0.416897 55.845 1.05261e-07 
150 1 0.428625 7.83937e-06 0.416905 55.845 -2.64389e-08 
151 1 0.464316 9.08339e-05 0.375574 55.845 -5.89213e-08 
152 1 0.464215 0.035771 0.416959 55.845 1.49721e-07 
239 1 0.392906 0.0713919 0.291001 55.845 4.6084e-08 
240 1 0.392817 0.107136 0.333141 55.845 2.47907e-07 
241 1 0.428567 0.107085 0.291005 55.845 -3.80401e-07 
246 1 0.392924 0.000104877 0.291075 55.845 1.63665e-07 
247 1 0.392837 0.0356873 0.333073 55.845 1.80574e-07 
248 1 0.428581 0.0357549 0.290979 55.845 2.40657e-07 
249 1 0.428603 0.071424 0.333035 55.845 2.66154e-07 
250 1 0.464334 0.0714958 0.291125 55.845 7.69684e-08 
251 1 0.464308 0.107207 0.333041 55.845 4.60189e-08 
252 1 0.428607 7.05927e-05 0.333135 55.845 -9.00179e-08 
253 1 0.464378 2.53912e-05 0.291136 55.845 4.19457e-07 
254 1 0.464291 0.0358108 0.333186 55.845 1.51964e-07 
342 1 0.392847 0.107165 0.249958 55.845 4.52124e-07 
349 1 0.392848 0.035735 0.249814 55.845 2.1438e-07 
351 1 0.428627 0.0715173 0.249997 55.845 2.09653e-07 
353 1 0.464344 0.107186 0.249984 55.845 1.27266e-07 
354 1 0.42863 2.16695e-05 0.250089 55.845 -1.80654e-07 
356 1 0.464222 0.0357477 0.24999 55.845 -2.13432e-08 
1 1 1.43265e-05 0.178606 0.4583 55.845 -4.97863e-09 
2 1 0.0358065 0.214342 0.458449 55.845 -4.93522e-08 
4 1 0.0357548 0.142945 0.458449 55.845 -5.50114e-08 
5 1 0.0714582 0.17855 0.458254 55.845 -7.89722e-08 
6 1 0.107076 0.21433 0.458312 55.845 -2.19943e-07 
10 1 0.107136 0.142819 0.458361 55.845 -1.37177e-07 
51 1 1.69831e-05 0.1786 0.375426 55.845 -1.22447e-07 
52 1 1.16083e-05 0.214287 0.417246 55.845 3.17335e-08 
53 1 0.0356902 0.214353 0.375564 55.845 -1.96316e-07 
54 1 0.0356924 0.249962 0.416971 55.845 1.62528e-07 
56 1 5.30653e-05 0.142838 0.416896 55.845 1.17895e-07 
57 1 0.0357467 0.142891 0.375448 55.845 -4.37813e-07 
58 1 0.0357327 0.178641 0.417036 55.845 2.24621e-07 
59 1 0.0714075 0.178604 0.375449 55.845 -3.87594e-07 
60 1 0.0714006 0.214304 0.416927 55.845 2.06589e-07 
61 1 0.107152 0.214278 0.375509 55.845 -3.40012e-07 
62 1 0.107179 0.250007 0.416929 55.845 -3.7008e-08 
68 1 0.0714329 0.142882 0.417022 55.845 2.51054e-07 
69 1 0.10708 0.142857 0.375484 55.845 -3.7189e-07 
70 1 0.107078 0.178565 0.416848 55.845 1.9174e-07 
153 1 -8.08345e-05 0.178595 0.2911 55.845 -5.05997e-08 
154 1 -5.59624e-06 0.214355 0.333179 55.845 4.0086e-08 
155 1 0.0356894 0.21434 0.291218 55.845 1.13671e-07 
156 1 0.0357149 0.250117 0.333114 55.845 2.62224e-07 
158 1 3.3017e-06 0.142935 0.333136 55.845 1.48801e-07 
159 1 0.0357042 0.142784 0.291079 55.845 -1.45735e-07 
160 1 0.0356522 0.178551 0.333066 55.845 3.08601e-07 
161 1 0.0714003 0.17853 0.29109 55.845 -5.55783e-08 
162 1 0.071388 0.214317 0.333111 55.845 2.57451e-07 
163 1 0.107193 0.214268 0.290984 55.845 7.42183e-08 
164 1 0.107162 0.250025 0.332963 55.845 -2.17107e-08 
170 1 0.0714521 0.142934 0.333167 55.845 2.46046e-07 
171 1 0.107085 0.142875 0.290982 55.845 6.42959e-09 
172 1 0.107155 0.178536 0.333152 55.845 1.13287e-07 
256 1 2.71212e-05 0.214271 0.24992 55.845 3.4613e-07 
258 1 0.0356917 0.25 0.250022 55.845 2.17309e-07 
260 1 1.53628e-05 0.142898 0.249879 55.845 4.39039e-07 
262 1 0.035688 0.178545 0.249976 55.845 3.44072e-07 
264 1 0.071402 0.214305 0.249997 55.845 2.86774e-07 
266 1 0.107184 0.249996 0.250045 55.845 2.96516e-08 
272 1 0.0713887 0.142812 0.24988 55.845 1.31575e-07 
274 1 0.107066 0.178546 0.249926 55.845 7.88415e-08 
11 1 0.142831 0.178603 0.458258 55.845 -3.17423e-07 
12 1 0.178485 0.21423 0.458253 55.845 -3.22788e-07 
17 1 0.178614 0.14292 0.45828 55.845 -3.40334e-07 
18 1 0.214263 0.17856 0.458124 55.845 -2.26855e-07 
19 1 0.249967 0.214211 0.458032 55.845 4.04357e-08 
24 1 0.249917 0.142822 0.458182 55.845 -3.7355e-07 
71 1 0.142819 0.178542 0.375527 55.845 -3.68752e-07 
72 1 0.14275 0.21432 0.417006 55.845 -1.05285e-07 
73 1 0.178569 0.214204 0.375494 55.845 -2.43013e-07 
82 1 0.14286 0.142829 0.417058 55.845 3.06173e-07 
83 1 0.17847 0.142889 0.375547 55.845 -1.99689e-07 
84 1 0.178438 0.17855 0.41698 55.845 5.99789e-08 
85 1 0.21421 0.178564 0.375339 55.845 -1.44351e-07 
86 1 0.214254 0.214244 0.416852 55.845 1.73563e-07 
87 1 0.249991 0.21424 0.375337 55.845 -7.8134e-08 
96 1 0.2143 0.142865 0.416807 55.845 4.70574e-08 
97 1 0.249927 0.142892 0.37541 55.845 -4.99915e-07 
98 1 0.250016 0.178522 0.416844 55.845 2.8178e-07 
173 1 0.142858 0.178582 0.290896 55.845 6.16691e-08 
174 1 0.142785 0.214225 0.333106 55.845 -2.03259e-07 
175 1 0.178565 0.214198 0.291133 55.845 6.42964e-08 
184 1 0.142787 0.142823 0.333182 55.845 1.61895e-07 
185 1 0.178545 0.142849 0.29101 55.845 1.89178e-07 
186 1 0.178484 0.178453 0.33318 55.845 -2.13815e-08 
187 1 0.214301 0.178599 0.29108 55.845 2.78532e-07 
188 1 0.214245 0.214234 0.333034 55.845 1.21443e-07 
189 1 0.250012 0.214322 0.290932 55.845 2.40929e-07 
198 1 0.21425 0.142879 0.333114 55.845 -3.64194e-08 
199 1 0.250016 0.142839 0.291161 55.845 -1.31792e-07 
200 1 0.249937 0.17858 0.332918 55.845 4.04973e-07 
276 1 0.142882 0.214336 0.249929 55.845 -1.16638e-07 
286 1 0.142803 0.142832 0.250047 55.845 2.25541e-07 
288 1 0.178653 0.178565 0.249916 55.845 1.6122e-07 
290 1 0.214293 0.214376 0.249878 55.845 2.00814e-07 
300 1 0.214284 0.142837 0.250104 55.845 2.43062e-07 
302 1 0.250014 0.178643 0.250054 55.845 4.53469e-07 
25 1 0.285698 0.178566 0.458313 55.845 -1.97864e-07 
26 1 0.321355 0.214341 0.458181 55.845 -2.0623e-07 
31 1 0.321454 0.142985 0.458266 55.845 -3.98129e-07 
32 1 0.357177 0.178602 0.458257 55.845 -3.70902e-07 
99 1 0.285708 0.178567 0.375338 55.845 -3.80004e-07 
100 1 0.28567 0.214307 0.416849 55.845 4.45367e-07 
101 1 0.321391 0.214281 0.375448 55.845 -4.60461e-07 
110 1 0.285703 0.142766 0.416843 55.845 6.42291e-08 
111 1 0.32144 0.142875 0.37552 55.845 -4.36914e-07 
112 1 0.321411 0.178563 0.416954 55.845 2.22094e-07 
113 1 0.357155 0.178689 0.375549 55.845 -3.41041e-07 
114 1 0.357162 0.214351 0.416786 55.845 2.45432e-07 
126 1 0.357189 0.142829 0.416867 55.845 2.73519e-07 
201 1 0.285707 0.178556 0.29099 55.845 2.11881e-08 
202 1 0.285708 0.214378 0.333043 55.845 4.68424e-07 
203 1 0.321461 0.214349 0.291024 55.845 -1.54862e-07 
212 1 0.285734 0.14284 0.333118 55.845 1.2837e-07 
213 1 0.321431 0.142817 0.291157 55.845 -1.927e-07 
214 1 0.321419 0.178627 0.333313 55.845 3.15947e-07 
215 1 0.357114 0.178599 0.291172 55.845 -1.45669e-07 