ITEM: TIMESTEP
9700
ITEM: NUMBER OF ATOMS
5880
ITEM: BOX BOUNDS pp pp ff
-27.9309 27.9309
-27.9309 27.9309
0 34.092
ITEM: ATOMS id type xs ys zs mass q 
259 1 5.87015e-06 0.107011 0.211889 55.845 -3.36146e-07 
267 1 7.19825e-05 0.0357466 0.211939 55.845 -1.10591e-07 
269 1 0.0357944 0.071273 0.211898 55.845 -3.76321e-07 
271 1 0.0715731 0.107052 0.211856 55.845 -5.04224e-07 
279 1 0.0357272 -0.000134634 0.211828 55.845 -2.2018e-07 
281 1 0.0714119 0.0356426 0.211876 55.845 -1.82044e-07 
283 1 0.107216 0.0713651 0.211691 55.845 -1.24583e-07 
293 1 0.107174 -3.97405e-05 0.211812 55.845 -5.18414e-08 
361 1 0.000117837 0.107008 0.125838 55.845 -4.65151e-07 
369 1 9.72642e-05 0.0356649 0.125777 55.845 3.22232e-08 
370 1 -4.67795e-05 0.0713462 0.169306 55.845 1.29774e-08 
371 1 0.035807 0.0713443 0.125875 55.845 -5.14056e-07 
372 1 0.0358055 0.107076 0.169368 55.845 6.74356e-08 
373 1 0.0714056 0.107222 0.125996 55.845 -7.03929e-07 
380 1 8.22625e-06 5.50629e-05 0.169745 55.845 -3.47269e-07 
381 1 0.0357286 -7.21283e-06 0.125794 55.845 -1.72703e-07 
382 1 0.0357017 0.035693 0.169459 55.845 -4.7838e-07 
383 1 0.0713287 0.035704 0.125838 55.845 -3.5958e-07 
384 1 0.0713779 0.0713499 0.169288 55.845 -1.80242e-07 
385 1 0.107087 0.0714061 0.125843 55.845 -3.50883e-07 
386 1 0.107257 0.107171 0.169324 55.845 1.11332e-07 
394 1 0.0713497 -3.95574e-05 0.169511 55.845 -5.98711e-07 
395 1 0.107206 -0.000141878 0.125863 55.845 -1.42924e-07 
396 1 0.107097 0.0355809 0.169552 55.845 -1.80659e-07 
463 1 0 0.107143 0.0416667 55.845 3.34983e-07 
471 1 0 0.0357143 0.0416667 55.845 5.60608e-07 
472 1 -7.02735e-05 0.0714248 0.0826908 55.845 1.82749e-07 
473 1 0.0357143 0.0714286 0.0416667 55.845 2.93289e-07 
474 1 0.0357316 0.107076 0.0825944 55.845 3.23347e-07 
475 1 0.0714286 0.107143 0.0416667 55.845 2.45394e-07 
482 1 2.50564e-05 8.24206e-05 0.0825504 55.845 -3.06474e-07 
483 1 0.0357143 0 0.0416667 55.845 3.58995e-07 
484 1 0.0356803 0.0357287 0.0825115 55.845 -1.75124e-07 
485 1 0.0714286 0.0357143 0.0416667 55.845 2.30696e-07 
486 1 0.0712842 0.0715089 0.0824959 55.845 1.10617e-07 
487 1 0.107143 0.0714286 0.0416667 55.845 4.19805e-07 
488 1 0.107134 0.107151 0.0827387 55.845 3.68705e-07 
496 1 0.0713725 4.85919e-05 0.0826599 55.845 -3.39306e-07 
497 1 0.107143 0 0.0416667 55.845 3.43681e-07 
498 1 0.106992 0.0356478 0.0826539 55.845 1.47471e-07 
567 1 0 0.0714286 0 55.845 -2.93927e-08 
568 1 0.0357143 0.107143 0 55.845 -4.84381e-08 
572 1 0 0 0 55.845 -2.81141e-07 
573 1 0.0357143 0.0357143 0 55.845 -2.92099e-07 
574 1 0.0714286 0.0714286 0 55.845 -8.45083e-08 
575 1 0.107143 0.107143 0 55.845 6.09491e-08 
579 1 0.0714286 0 0 55.845 -3.80956e-07 
580 1 0.107143 0.0357143 0 55.845 -1.07765e-07 
285 1 0.142938 0.107189 0.211706 55.845 -3.00923e-07 
295 1 0.142888 0.0357575 0.21213 55.845 -1.07521e-07 
297 1 0.178693 0.0714108 0.211862 55.845 -3.7333e-07 
299 1 0.214302 0.10713 0.212066 55.845 -2.93291e-07 
307 1 0.178556 -0.000102504 0.211763 55.845 -8.16518e-07 
309 1 0.214371 0.0357069 0.211813 55.845 -8.07022e-07 
311 1 0.249992 0.0714057 0.211761 55.845 -2.29349e-07 
387 1 0.142888 0.107246 0.125822 55.845 -4.80196e-07 
397 1 0.142686 0.0357011 0.125771 55.845 -3.23465e-07 
398 1 0.142805 0.071379 0.169457 55.845 2.85626e-07 
399 1 0.178557 0.0715017 0.126025 55.845 -5.41948e-07 
400 1 0.178726 0.107247 0.16945 55.845 2.98966e-08 
401 1 0.214205 0.107134 0.125786 55.845 -5.58332e-07 
408 1 0.142906 2.18249e-05 0.169326 55.845 1.93137e-07 
409 1 0.178567 -0.00014062 0.125929 55.845 -7.65268e-07 
410 1 0.178477 0.035665 0.169263 55.845 2.85426e-07 
411 1 0.214314 0.035712 0.125828 55.845 -1.03878e-06 
412 1 0.214214 0.0714686 0.16941 55.845 1.40837e-07 
413 1 0.249974 0.0714062 0.125625 55.845 -4.91225e-07 
414 1 0.250073 0.107047 0.169384 55.845 -2.82203e-07 
424 1 0.214204 -4.98237e-05 0.169555 55.845 2.34265e-07 
426 1 0.250039 0.0356919 0.169178 55.845 1.62398e-07 
489 1 0.142857 0.107143 0.0416667 55.845 4.78727e-07 
499 1 0.142857 0.0357143 0.0416667 55.845 4.18114e-07 
500 1 0.142901 0.0715212 0.0825896 55.845 5.03679e-07 
501 1 0.178571 0.0714286 0.0416667 55.845 3.13961e-07 
502 1 0.178599 0.107061 0.0825352 55.845 2.62641e-07 
503 1 0.214286 0.107143 0.0416667 55.845 3.0164e-07 
510 1 0.142848 -7.83245e-05 0.0827054 55.845 2.09335e-07 
511 1 0.178571 0 0.0416667 55.845 1.46088e-07 
512 1 0.178493 0.0356669 0.0826965 55.845 4.42448e-07 
513 1 0.214286 0.0357143 0.0416667 55.845 -3.46593e-08 
514 1 0.214184 0.0712898 0.0825473 55.845 3.24859e-07 
515 1 0.25 0.0714286 0.0416667 55.845 1.77455e-07 
516 1 0.249982 0.107196 0.0827673 55.845 -1.3072e-08 
526 1 0.214168 -0.000119764 0.0825682 55.845 2.33833e-07 
528 1 0.249954 0.035599 0.0826334 55.845 4.26056e-07 
581 1 0.142857 0.0714286 0 55.845 1.36156e-07 
582 1 0.178571 0.107143 0 55.845 2.08924e-09 
586 1 0.142857 0 0 55.845 -1.34072e-07 
587 1 0.178571 0.0357143 0 55.845 -6.67086e-08 
588 1 0.214286 0.0714286 0 55.845 -3.53087e-08 
589 1 0.25 0.107143 0 55.845 -1.65673e-07 
594 1 0.214286 0 0 55.845 -2.38669e-07 
595 1 0.25 0.0357143 0 55.845 -9.25531e-08 
313 1 0.285673 0.107216 0.21178 55.845 3.62919e-07 
323 1 0.249992 -5.55348e-06 0.211778 55.845 -9.38232e-07 
325 1 0.285618 0.0357086 0.211701 55.845 2.10716e-08 
327 1 0.321349 0.0714429 0.21167 55.845 4.18414e-07 
329 1 0.357108 0.10706 0.21184 55.845 3.56323e-07 
337 1 0.321427 1.62848e-05 0.211721 55.845 2.4478e-08 
339 1 0.35698 0.0355762 0.211733 55.845 1.04096e-07 
415 1 0.285661 0.107169 0.126023 55.845 1.17167e-07 
425 1 0.249973 -0.00012962 0.125971 55.845 -1.09453e-06 
427 1 0.28566 0.0356594 0.125669 55.845 -5.34151e-07 
428 1 0.285619 0.0713989 0.169374 55.845 2.73343e-08 
429 1 0.321312 0.0713782 0.125653 55.845 2.36415e-08 
430 1 0.321481 0.107145 0.169434 55.845 -4.82066e-07 
431 1 0.357276 0.107227 0.126011 55.845 8.51733e-08 
439 1 0.321429 -1.37917e-05 0.125648 55.845 -4.47758e-07 
440 1 0.321243 0.0355629 0.169375 55.845 -5.78808e-08 
441 1 0.357132 0.0356487 0.125913 55.845 -5.65063e-07 
442 1 0.357153 0.071405 0.169412 55.845 -4.54889e-07 
517 1 0.285714 0.107143 0.0416667 55.845 5.98169e-07 
527 1 0.25 0 0.0416667 55.845 -1.127e-07 
529 1 0.285714 0.0357143 0.0416667 55.845 1.33188e-07 
530 1 0.28562 0.0713936 0.0825031 55.845 3.86568e-07 
531 1 0.321429 0.0714286 0.0416667 55.845 3.53788e-07 
532 1 0.32156 0.10712 0.0824673 55.845 -9.78645e-08 
533 1 0.357143 0.107143 0.0416667 55.845 4.43269e-07 
603 1 0.357143 0.0714286 0 55.845 -1.68594e-07 
541 1 0.321429 0 0.0416667 55.845 1.79961e-07 
542 1 0.32156 0.035774 0.0824006 55.845 4.38388e-07 
543 1 0.357143 0.0357143 0.0416667 55.845 -2.12516e-08 
544 1 0.357116 0.0713726 0.0824698 55.845 1.29557e-07 
602 1 0.321429 0.0357143 0 55.845 -3.42557e-08 
596 1 0.285714 0.0714286 0 55.845 3.62106e-09 
597 1 0.321429 0.107143 0 55.845 -2.13516e-07 
612 1 0.464286 0.0357143 0 55.845 9.02505e-08 
611 1 0.428571 0 0 55.845 -5.79524e-08 
610 1 0.464286 0.107143 0 55.845 -5.92137e-08 
609 1 0.428571 0.0714286 0 55.845 -7.91981e-08 
608 1 0.392857 0.0357143 0 55.845 -1.9872e-07 
341 1 0.392868 0.0714246 0.211772 55.845 9.88236e-08 
343 1 0.428589 0.107236 0.211752 55.845 1.17215e-07 
348 1 0.392711 4.09187e-05 0.211878 55.845 -1.5192e-07 
350 1 0.428467 0.0356883 0.211853 55.845 2.22511e-07 
352 1 0.464248 0.0714063 0.211871 55.845 2.97788e-07 
355 1 0.464347 -2.39125e-05 0.211692 55.845 4.09343e-07 
443 1 0.392803 0.0713825 0.125695 55.845 -4.12008e-07 
444 1 0.39283 0.107149 0.169356 55.845 -5.01552e-07 
445 1 0.428621 0.107192 0.12581 55.845 -1.86318e-07 
604 1 0.392857 0.107143 0 55.845 -2.73381e-07 
450 1 0.392955 -1.11515e-05 0.12589 55.845 -7.59902e-07 
451 1 0.392876 0.0357101 0.169417 55.845 -4.92015e-07 
452 1 0.428654 0.0355907 0.125806 55.845 -6.93723e-07 
453 1 0.428497 0.071454 0.169396 55.845 -2.90022e-07 
454 1 0.464179 0.0714387 0.12585 55.845 -2.82664e-07 
455 1 0.464209 0.107009 0.169445 55.845 6.21987e-08 
456 1 0.428638 -2.2863e-05 0.16966 55.845 -3.01947e-07 
457 1 0.464346 -6.20548e-05 0.125875 55.845 -5.07877e-07 
458 1 0.464241 0.0357271 0.16944 55.845 -1.74385e-07 
545 1 0.392857 0.0714286 0.0416667 55.845 -6.18689e-09 
546 1 0.392804 0.107101 0.082574 55.845 -1.17222e-07 
547 1 0.428571 0.107143 0.0416667 55.845 3.08464e-07 
552 1 0.392857 0 0.0416667 55.845 -9.39874e-08 
553 1 0.392932 0.0356713 0.0824713 55.845 1.74054e-07 
554 1 0.428571 0.0357143 0.0416667 55.845 -1.53175e-07 
555 1 0.428572 0.0714269 0.0825974 55.845 3.84972e-07 
556 1 0.464286 0.0714286 0.0416667 55.845 7.33843e-08 
557 1 0.464441 0.107124 0.082439 55.845 3.87618e-07 
558 1 0.428684 -7.51896e-05 0.0824908 55.845 3.90453e-07 
559 1 0.464286 0 0.0416667 55.845 4.13884e-09 
560 1 0.464371 0.0357611 0.0826121 55.845 6.79933e-07 
255 1 7.26786e-05 0.178586 0.211941 55.845 -2.86942e-07 
257 1 0.0356707 0.214239 0.211858 55.845 -2.46742e-07 
261 1 0.0357512 0.142793 0.21215 55.845 -5.45394e-07 
263 1 0.071429 0.178511 0.212022 55.845 -6.93393e-07 
265 1 0.107125 0.214292 0.211801 55.845 -6.90816e-07 
273 1 0.107262 0.142913 0.211866 55.845 -6.48912e-07 
357 1 -3.46885e-05 0.178471 0.126057 55.845 -5.09545e-07 
358 1 4.97267e-05 0.2143 0.16951 55.845 -3.3499e-07 
359 1 0.0357528 0.214139 0.1258 55.845 -4.47806e-07 
360 1 0.0356411 0.249951 0.169603 55.845 -2.18594e-08 
362 1 -2.44657e-05 0.14274 0.169657 55.845 1.42495e-07 
363 1 0.0357652 0.142818 0.125876 55.845 -7.98867e-07 
364 1 0.0358289 0.178555 0.169561 55.845 -5.90797e-08 
365 1 0.0713777 0.178461 0.125956 55.845 -7.11051e-07 
366 1 0.071383 0.214215 0.169363 55.845 2.39345e-07 
367 1 0.107156 0.214253 0.125851 55.845 -6.64183e-07 
368 1 0.107111 0.25001 0.169485 55.845 3.51007e-07 
374 1 0.0714831 0.142923 0.16981 55.845 8.97571e-08 
375 1 0.107288 0.142926 0.125836 55.845 -6.87709e-07 
376 1 0.107067 0.178588 0.169402 55.845 1.06347e-07 
459 1 0 0.178571 0.0416667 55.845 9.47297e-08 
460 1 -7.67873e-06 0.21417 0.0824318 55.845 -1.48392e-08 
461 1 0.0357143 0.214286 0.0416667 55.845 2.9153e-07 
462 1 0.035599 0.249868 0.0824973 55.845 1.93795e-07 
464 1 -1.22199e-05 0.142876 0.0826893 55.845 3.9044e-07 
465 1 0.0357143 0.142857 0.0416667 55.845 1.27065e-07 
466 1 0.0356958 0.178484 0.0824985 55.845 1.67904e-07 
467 1 0.0714286 0.178571 0.0416667 55.845 2.47325e-07 
468 1 0.0713894 0.214236 0.0824816 55.845 1.77489e-07 
469 1 0.107143 0.214286 0.0416667 55.845 4.17057e-07 
470 1 0.107014 0.249931 0.0827528 55.845 4.7787e-07 
476 1 0.0715447 0.142778 0.0826522 55.845 1.84663e-07 
477 1 0.107143 0.142857 0.0416667 55.845 3.60532e-07 
478 1 0.107166 0.178462 0.0826785 55.845 1.28851e-07 
561 1 0 0.214286 0 55.845 -2.52632e-07 
562 1 0.0357143 0.25 0 55.845 -2.19219e-07 
563 1 0 0.142857 0 55.845 -1.92873e-08 
564 1 0.0357143 0.178571 0 55.845 -1.93749e-07 
565 1 0.0714286 0.214286 0 55.845 -1.23494e-07 
566 1 0.107143 0.25 0 55.845 -3.57209e-08 
569 1 0.0714286 0.142857 0 55.845 -6.16038e-08 
570 1 0.107143 0.178571 0 55.845 -8.90293e-08 
275 1 0.142853 0.178627 0.211901 55.845 -6.59161e-07 
277 1 0.17854 0.214296 0.211861 55.845 -5.29954e-07 
287 1 0.178626 0.14284 0.211984 55.845 -4.78046e-07 
289 1 0.214304 0.178429 0.211936 55.845 -3.51035e-07 
291 1 0.249976 0.214209 0.21176 55.845 -3.65402e-07 
301 1 0.249953 0.142763 0.211795 55.845 -1.23849e-07 
377 1 0.142932 0.178584 0.125883 55.845 -6.62514e-07 
378 1 0.142769 0.214223 0.169223 55.845 2.68486e-07 
379 1 0.178591 0.21436 0.125928 55.845 -6.27699e-07 
388 1 0.143059 0.142948 0.169673 55.845 3.78022e-08 
389 1 0.178545 0.142845 0.125639 55.845 -5.48677e-07 
390 1 0.178711 0.178608 0.169655 55.845 -1.09259e-07 
391 1 0.214246 0.17856 0.125908 55.845 -4.16635e-07 
392 1 0.214262 0.214306 0.169386 55.845 2.58198e-07 
393 1 0.249879 0.214276 0.125545 55.845 -3.32386e-07 
402 1 0.21428 0.142818 0.169384 55.845 -3.09051e-07 
403 1 0.249951 0.142777 0.125687 55.845 -1.13985e-07 
404 1 0.250004 0.178614 0.169051 55.845 -3.13055e-07 
479 1 0.142857 0.178571 0.0416667 55.845 3.80923e-07 
480 1 0.142898 0.214325 0.0826795 55.845 2.75312e-07 
481 1 0.178571 0.214286 0.0416667 55.845 2.9583e-07 
490 1 0.142753 0.142879 0.0826418 55.845 1.19974e-07 
491 1 0.178571 0.142857 0.0416667 55.845 3.58452e-07 
492 1 0.178509 0.178661 0.082701 55.845 -3.75074e-08 
493 1 0.214286 0.178571 0.0416667 55.845 4.21185e-07 
494 1 0.214251 0.214372 0.0826735 55.845 2.27877e-07 
495 1 0.25 0.214286 0.0416667 55.845 4.16484e-07 
504 1 0.214262 0.142887 0.0826458 55.845 -2.77062e-07 
505 1 0.25 0.142857 0.0416667 55.845 4.85531e-07 
506 1 0.249932 0.178559 0.0825321 55.845 -3.51557e-07 
571 1 0.142857 0.214286 0 55.845 -1.9133e-08 
576 1 0.142857 0.142857 0 55.845 1.98231e-09 
577 1 0.178571 0.178571 0 55.845 -1.67092e-07 
578 1 0.214286 0.214286 0 55.845 -1.02861e-07 
583 1 0.214286 0.142857 0 55.845 -2.48584e-07 
584 1 0.25 0.178571 0 55.845 -3.37914e-07 
303 1 0.285609 0.17844 0.211734 55.845 -2.02478e-07 
305 1 0.321491 0.214284 0.211715 55.845 -5.80413e-07 
315 1 0.321442 0.142776 0.211681 55.845 1.40658e-07 
317 1 0.357275 0.17863 0.211834 55.845 -2.82985e-07 
405 1 0.285674 0.178518 0.125828 55.845 -3.61241e-08 
406 1 0.285616 0.214237 0.16935 55.845 6.4087e-08 
407 1 0.321399 0.214305 0.125819 55.845 -3.69931e-07 
416 1 0.285789 0.142987 0.169193 55.845 -5.12451e-07 
417 1 0.321528 0.142909 0.125675 55.845 2.9242e-07 
418 1 0.321545 0.178607 0.169209 55.845 -4.69372e-07 
419 1 0.357336 0.178654 0.125748 55.845 -1.37584e-07 
420 1 0.357257 0.214359 0.169308 55.845 1.70161e-07 
432 1 0.357234 0.142952 0.169336 55.845 -6.38838e-07 
507 1 0.285714 0.178571 0.0416667 55.845 6.86981e-07 
508 1 0.285652 0.214298 0.0825438 55.845 -3.71944e-10 
509 1 0.321429 0.214286 0.0416667 55.845 4.75655e-07 
518 1 0.285797 0.142894 0.0826234 55.845 -4.91253e-07 
519 1 0.321429 0.142857 0.0416667 55.845 6.9792e-07 
520 1 0.321536 0.178554 0.0826567 55.845 -5.09331e-07 
521 1 0.357143 0.178571 0.0416667 55.845 5.66502e-07 
522 1 0.357234 0.21423 0.0824786 55.845 1.21519e-07 
534 1 0.357254 0.142942 0.0825084 55.845 -4.96275e-07 
585 1 0.285714 0.214286 0 55.845 -2.333e-07 
590 1 0.285714 0.142857 0 55.845 -3.44694e-07 
591 1 0.321429 0.178571 0 55.845 -4.1093e-07 
592 1 0.357143 0.214286 0 55.845 -1.75227e-07 
598 1 0.357143 0.142857 0 55.845 -3.9125e-07 
319 1 0.392912 0.214524 0.211878 55.845 -8.43953e-07 
321 1 0.428615 0.250193 0.211869 55.845 -1.39208e-06 
331 1 0.392965 0.14285 0.21191 55.845 -1.33062e-07 
333 1 0.42877 0.178603 0.211806 55.845 -7.75002e-07 
335 1 0.464405 0.214372 0.211946 55.845 -1.54489e-06 
345 1 0.464297 0.142871 0.211803 55.845 -5.5038e-07 
606 1 0.464286 0.178571 0 55.845 -1.70112e-07 
421 1 0.392866 0.214256 0.125864 55.845 -8.38905e-07 
422 1 0.392929 0.249999 0.169411 55.845 9.01562e-07 
423 1 0.428414 0.250002 0.125817 55.845 -1.59135e-06 
433 1 0.39301 0.142878 0.125669 55.845 -6.97726e-08 
434 1 0.392976 0.17871 0.169614 55.845 -9.24692e-08 
435 1 0.428615 0.178686 0.125742 55.845 -6.70172e-07 
436 1 0.428507 0.214419 0.169845 55.845 7.14768e-07 
437 1 0.464163 0.214412 0.125795 55.845 -1.34839e-06 
605 1 0.428571 0.142857 0 55.845 -2.3789e-07 
446 1 0.428577 0.142951 0.169296 55.845 -4.21888e-08 
447 1 0.464227 0.14282 0.125696 55.845 -3.53416e-07 
448 1 0.464195 0.178541 0.169551 55.845 4.46554e-07 
523 1 0.392857 0.214286 0.0416667 55.845 2.3584e-07 
524 1 0.392915 0.25002 0.0825811 55.845 9.24278e-07 
525 1 0.428571 0.25 0.0416667 55.845 -7.4731e-08 
535 1 0.392857 0.142857 0.0416667 55.845 4.48027e-07 
536 1 0.392953 0.178629 0.082602 55.845 -1.84715e-07 
537 1 0.428571 0.178571 0.0416667 55.845 3.72901e-07 
538 1 0.4286 0.214299 0.0825514 55.845 5.35744e-07 
539 1 0.464286 0.214286 0.0416667 55.845 6.57697e-08 
548 1 0.428538 0.14281 0.0825678 55.845 -2.51272e-08 
549 1 0.464286 0.142857 0.0416667 55.845 3.94911e-07 
550 1 0.464253 0.178581 0.0825472 55.845 2.49878e-07 
593 1 0.392857 0.25 0 55.845 1.43307e-07 
599 1 0.392857 0.178571 0 55.845 -3.0757e-07 
600 1 0.428571 0.214286 0 55.845 -2.15187e-08 
3 1 -5.37199e-05 0.107131 0.462412 55.845 -3.55496e-07 
7 1 0.0001207 0.0356805 0.462125 55.845 -4.64337e-07 
8 1 0.0356123 0.0714909 0.462263 55.845 -5.01636e-07 
9 1 0.0714103 0.107228 0.462349 55.845 -7.07507e-08 
13 1 0.035648 4.4722e-05 0.462318 55.845 -6.41829e-07 
14 1 0.0713809 0.0357029 0.462109 55.845 -4.76631e-07 
15 1 0.107071 0.071478 0.462303 55.845 -2.78925e-07 
20 1 0.107063 9.52107e-05 0.462338 55.845 -4.20102e-07 
55 1 -3.27398e-05 0.107231 0.379397 55.845 5.1466e-07 
63 1 -2.65536e-07 0.0357253 0.379057 55.845 -2.85432e-08 
64 1 -4.50243e-05 0.0715169 0.419983 55.845 -4.43189e-07 
65 1 0.0356693 0.0713876 0.378835 55.845 1.73575e-07 
66 1 0.0356371 0.107249 0.419924 55.845 -6.70274e-07 
67 1 0.0713106 0.107244 0.379416 55.845 6.55883e-07 
74 1 -0.000116854 2.88587e-06 0.419771 55.845 3.39266e-07 
75 1 0.0357183 -2.00953e-05 0.379241 55.845 -4.21831e-07 
76 1 0.03588 0.03587 0.42004 55.845 -9.60287e-08 
77 1 0.0715124 0.0356822 0.379208 55.845 5.94051e-08 
78 1 0.0713183 0.0714051 0.420013 55.845 -6.05188e-07 
79 1 0.107079 0.0714084 0.379268 55.845 5.84178e-07 
80 1 0.107061 0.107239 0.42021 55.845 -9.86931e-07 
88 1 0.0713979 -8.6826e-05 0.420098 55.845 2.83998e-07 
89 1 0.107185 -2.4842e-05 0.379154 55.845 1.55766e-07 
90 1 0.107195 0.0355966 0.42018 55.845 -2.68147e-07 
157 1 -2.22579e-05 0.107223 0.296108 55.845 -5.31496e-07 
165 1 6.40402e-05 0.0356852 0.296188 55.845 -1.01432e-06 
166 1 -2.02196e-05 0.0715388 0.337829 55.845 6.27232e-07 
167 1 0.0356141 0.0715254 0.296113 55.845 -8.40446e-07 
168 1 0.0357226 0.10721 0.33787 55.845 4.34988e-07 
169 1 0.0715361 0.107124 0.296209 55.845 -6.87543e-07 
176 1 -0.000186977 -7.10429e-05 0.337877 55.845 1.37307e-06 
177 1 0.0356435 -8.50717e-05 0.296217 55.845 -1.35612e-06 
178 1 0.0356409 0.0356939 0.33791 55.845 7.81168e-07 
179 1 0.0713225 0.0357017 0.296191 55.845 -9.19194e-07 
180 1 0.0714614 0.071412 0.33804 55.845 3.76758e-07 
181 1 0.10715 0.0715809 0.296312 55.845 -4.45918e-07 
182 1 0.107235 0.107098 0.33818 55.845 3.79555e-07 
190 1 0.0714177 -2.45649e-05 0.33798 55.845 9.95844e-07 
191 1 0.106989 4.61226e-05 0.295898 55.845 -8.08862e-07 
192 1 0.10721 0.0356569 0.337723 55.845 5.27703e-07 
268 1 3.3381e-05 0.0713836 0.253625 55.845 6.31829e-07 
270 1 0.0358317 0.107119 0.253718 55.845 6.09664e-07 
278 1 -3.79149e-05 -0.000131034 0.253855 55.845 7.78264e-07 
280 1 0.0357205 0.035651 0.253816 55.845 3.20319e-07 
282 1 0.0714882 0.0714989 0.253741 55.845 3.14386e-07 
284 1 0.10729 0.107159 0.253668 55.845 7.69981e-07 
292 1 0.0713092 8.87881e-05 0.253801 55.845 1.7691e-07 
294 1 0.107029 0.0357339 0.253765 55.845 4.16015e-07 
16 1 0.142759 0.107234 0.462432 55.845 -3.0378e-08 
21 1 0.142806 0.0356819 0.462245 55.845 -1.84285e-07 
22 1 0.178535 0.0713905 0.462379 55.845 -1.21405e-07 
23 1 0.214192 0.107245 0.462317 55.845 9.7627e-08 
27 1 0.178471 -3.04202e-05 0.462234 55.845 8.88863e-09 
28 1 0.21419 0.0358193 0.462316 55.845 2.04106e-08 
29 1 0.250014 0.0712618 0.462309 55.845 1.51022e-07 
81 1 0.142926 0.107235 0.379327 55.845 7.59138e-07 
91 1 0.142834 0.0357371 0.379204 55.845 7.9712e-07 
92 1 0.142725 0.0714591 0.420212 55.845 -8.08274e-07 
93 1 0.178453 0.0714832 0.379305 55.845 7.85442e-07 
94 1 0.178556 0.107272 0.420291 55.845 -1.07093e-06 
95 1 0.214162 0.107119 0.379143 55.845 8.52337e-07 
102 1 0.142893 0.000121989 0.420063 55.845 -1.80618e-07 
103 1 0.178484 2.56023e-05 0.37889 55.845 7.34862e-07 
104 1 0.178549 0.0358298 0.420032 55.845 -6.55081e-07 
105 1 0.214282 0.0356366 0.379205 55.845 9.61203e-07 
106 1 0.214342 0.0714259 0.419862 55.845 -1.00011e-06 
107 1 0.250183 0.0713765 0.379131 55.845 1.01686e-06 
108 1 0.249935 0.1071 0.420129 55.845 -9.33829e-07 
118 1 0.214207 6.67614e-05 0.420094 55.845 -8.33783e-07 
120 1 0.249886 0.0357317 0.419966 55.845 -8.77932e-07 
183 1 0.142834 0.107119 0.296174 55.845 -5.39038e-07 
193 1 0.142843 0.035721 0.295869 55.845 -4.48156e-07 
194 1 0.142968 0.0713626 0.338043 55.845 3.05883e-07 
195 1 0.178778 0.0714543 0.295929 55.845 -4.30991e-07 
196 1 0.178606 0.107054 0.337934 55.845 1.93083e-07 
197 1 0.214312 0.107112 0.296373 55.845 -5.50072e-07 
204 1 0.142795 3.39655e-05 0.337826 55.845 7.14336e-07 
205 1 0.178501 2.45619e-05 0.296 55.845 -8.71324e-07 
206 1 0.178535 0.0357386 0.337786 55.845 2.76743e-07 
207 1 0.214281 0.0357138 0.295913 55.845 -7.03695e-07 
208 1 0.214314 0.0713749 0.338029 55.845 4.90875e-08 
209 1 0.250028 0.0714284 0.29632 55.845 -2.40147e-07 
210 1 0.249974 0.107201 0.338046 55.845 2.27989e-08 
220 1 0.214173 -7.6146e-05 0.337641 55.845 2.28101e-07 
222 1 0.249946 0.0356739 0.338105 55.845 -9.35146e-08 
296 1 0.142953 0.071437 0.253613 55.845 6.83775e-07 
298 1 0.17854 0.107069 0.253814 55.845 5.94498e-07 
306 1 0.142857 -9.0005e-05 0.253716 55.845 7.4392e-07 
308 1 0.178655 0.0357002 0.253642 55.845 7.7294e-07 
310 1 0.214405 0.0714896 0.253711 55.845 4.08951e-07 
312 1 0.250138 0.107093 0.253987 55.845 2.37595e-07 
322 1 0.214267 -7.151e-05 0.253508 55.845 6.77523e-07 
324 1 0.250051 0.0358688 0.25367 55.845 4.64044e-07 
30 1 0.285691 0.107128 0.462153 55.845 2.21962e-07 
35 1 0.249926 -0.000104315 0.462392 55.845 1.79489e-07 
36 1 0.285605 0.0355839 0.462287 55.845 2.16573e-07 
37 1 0.321316 0.0713388 0.462246 55.845 1.23437e-07 
38 1 0.357087 0.107296 0.462187 55.845 2.32751e-07 
42 1 0.321374 -0.000125201 0.462233 55.845 8.25407e-08 
43 1 0.357162 0.0356435 0.462413 55.845 -1.14432e-07 
109 1 0.285722 0.107019 0.379286 55.845 9.99602e-07 
119 1 0.249886 -9.32285e-05 0.378964 55.845 9.95077e-07 
121 1 0.285706 0.0356227 0.379077 55.845 1.27712e-06 
122 1 0.285663 0.0712449 0.420044 55.845 -9.64396e-07 
123 1 0.32162 0.071439 0.379201 55.845 1.02264e-06 
124 1 0.321443 0.107147 0.419988 55.845 -9.78097e-07 
125 1 0.357168 0.107176 0.379087 55.845 9.15915e-07 
133 1 0.321391 -5.54776e-05 0.379232 55.845 1.03045e-06 
134 1 0.321446 0.035633 0.419931 55.845 -6.80579e-07 
135 1 0.357127 0.0356398 0.379203 55.845 8.87026e-07 
136 1 0.357219 0.071423 0.420138 55.845 -8.57743e-07 
211 1 0.285751 0.107159 0.296174 55.845 -2.59092e-07 
221 1 0.249911 9.74996e-05 0.296086 55.845 -6.42905e-07 
223 1 0.285771 0.0356829 0.29608 55.845 -5.45873e-08 
224 1 0.285736 0.0713325 0.338029 55.845 -4.13037e-08 
225 1 0.321479 0.0713022 0.295877 55.845 5.80871e-08 
226 1 0.321501 0.107048 0.337777 55.845 -9.09272e-08 
227 1 0.35709 0.107121 0.296056 55.845 -3.55358e-07 
235 1 0.321367 6.27693e-05 0.296017 55.845 -1.92159e-08 
236 1 0.321401 0.0356603 0.33795 55.845 -7.90539e-08 
237 1 0.357043 0.0357928 0.296167 55.845 -1.03734e-07 
238 1 0.357216 0.071467 0.337807 55.845 -1.94933e-07 
326 1 0.285762 0.0714358 0.253805 55.845 1.43045e-07 
328 1 0.321423 0.107091 0.25356 55.845 -3.4602e-08 
338 1 0.321307 0.0355916 0.253585 55.845 1.31727e-07 
340 1 0.357141 0.0714536 0.253546 55.845 -2.95934e-07 
44 1 0.392866 0.0714638 0.46233 55.845 -1.18736e-08 
45 1 0.428585 0.107245 0.462353 55.845 2.88085e-07 
47 1 0.392865 -1.66296e-05 0.462554 55.845 -2.3928e-07 
48 1 0.42861 0.0356547 0.462567 55.845 -3.99498e-07 
49 1 0.464138 0.0714822 0.462491 55.845 -3.04389e-07 
50 1 0.464343 6.73358e-05 0.462236 55.845 -6.19204e-07 
137 1 0.392857 0.0714502 0.379034 55.845 7.41124e-07 
138 1 0.392948 0.107113 0.420015 55.845 -8.70149e-07 
139 1 0.428603 0.107215 0.379106 55.845 9.84402e-07 
144 1 0.392974 5.29828e-05 0.379125 55.845 6.14975e-07 
145 1 0.392841 0.0356858 0.420096 55.845 -5.10282e-07 
146 1 0.428672 0.0357315 0.379151 55.845 6.57862e-07 
147 1 0.42853 0.0713804 0.420165 55.845 -6.33456e-07 
148 1 0.464161 0.0716474 0.379085 55.845 5.84125e-07 
149 1 0.464253 0.10724 0.420158 55.845 -7.92802e-07 
150 1 0.428572 6.34456e-05 0.420475 55.845 -1.69477e-07 
151 1 0.464213 3.78832e-05 0.379103 55.845 3.15741e-07 
152 1 0.464222 0.0358116 0.419954 55.845 2.50836e-08 
239 1 0.392842 0.0715291 0.295989 55.845 -1.78592e-07 
240 1 0.392896 0.10713 0.338013 55.845 -3.25056e-08 
241 1 0.42856 0.107181 0.296049 55.845 -3.94949e-07 
246 1 0.392765 -9.28654e-06 0.296279 55.845 -2.54848e-07 
247 1 0.39284 0.0357363 0.337902 55.845 -2.36542e-07 
248 1 0.428466 0.0357701 0.296037 55.845 -4.63409e-08 
249 1 0.42848 0.0714858 0.337983 55.845 -3.36858e-08 
250 1 0.464226 0.0713727 0.296104 55.845 -1.47713e-07 
251 1 0.464308 0.107168 0.337587 55.845 2.93221e-07 
252 1 0.428546 0.000101873 0.337951 55.845 2.14788e-07 
253 1 0.464237 1.18164e-05 0.29598 55.845 1.12452e-07 
254 1 0.464352 0.0357944 0.337993 55.845 2.58807e-07 
342 1 0.392863 0.107134 0.253683 55.845 -9.31354e-08 
349 1 0.392763 0.035685 0.253745 55.845 -4.19814e-07 
351 1 0.428598 0.0714445 0.253605 55.845 -2.37431e-07 
353 1 0.464264 0.107129 0.253565 55.845 4.88705e-07 
354 1 0.428484 0.000105181 0.253762 55.845 -1.35729e-07 
356 1 0.464297 0.0356977 0.253669 55.845 -1.65785e-07 
1 1 8.0479e-05 0.178512 0.462372 55.845 -1.74338e-07 
2 1 0.0358216 0.214399 0.462444 55.845 1.93117e-07 
4 1 0.0356773 0.142823 0.46233 55.845 8.57823e-08 
5 1 0.0714765 0.178705 0.462475 55.845 5.07113e-07 
6 1 0.107206 0.214232 0.462452 55.845 3.60917e-07 
10 1 0.107072 0.142881 0.462427 55.845 3.33882e-07 
51 1 -2.28258e-05 0.178527 0.379177 55.845 6.62763e-07 
52 1 -3.1054e-05 0.21414 0.420236 55.845 -5.37979e-07 
53 1 0.0357689 0.214399 0.378987 55.845 8.1095e-07 
54 1 0.035762 0.250051 0.420063 55.845 -5.53622e-07 
56 1 2.54087e-05 0.142882 0.420153 55.845 -5.93131e-07 
57 1 0.0356926 0.142942 0.379161 55.845 8.86977e-07 
58 1 0.0357357 0.178639 0.42013 55.845 -7.14076e-07 
59 1 0.0714548 0.178687 0.379233 55.845 1.12652e-06 
60 1 0.0713212 0.214534 0.420125 55.845 -9.70933e-07 
61 1 0.107046 0.214405 0.378964 55.845 1.03569e-06 
62 1 0.107023 0.249972 0.420133 55.845 -1.11559e-06 
68 1 0.0713409 0.143008 0.420126 55.845 -9.68482e-07 
69 1 0.10708 0.142881 0.37923 55.845 9.44597e-07 
70 1 0.107121 0.178695 0.420184 55.845 -1.1774e-06 
153 1 -4.93407e-05 0.178615 0.296153 55.845 -4.94988e-07 
154 1 -8.48816e-05 0.214307 0.338152 55.845 1.71431e-07 
155 1 0.0357442 0.214319 0.296084 55.845 -5.9573e-07 
156 1 0.0355595 0.250069 0.338016 55.845 3.80165e-07 
158 1 -4.29939e-05 0.142818 0.337863 55.845 3.34438e-07 
159 1 0.0357104 0.142718 0.296024 55.845 -6.48863e-07 
160 1 0.0356654 0.178625 0.337916 55.845 3.8268e-07 
161 1 0.0714798 0.178635 0.296177 55.845 -6.58446e-07 
162 1 0.0713757 0.21436 0.337951 55.845 4.00888e-07 
163 1 0.107126 0.214254 0.296205 55.845 -7.44454e-07 
164 1 0.107148 0.25011 0.337815 55.845 -1.08365e-08 
170 1 0.0714409 0.142863 0.33786 55.845 4.97675e-07 
171 1 0.107227 0.142714 0.296213 55.845 -7.17084e-07 
172 1 0.107118 0.178489 0.337863 55.845 3.5626e-07 
256 1 3.43865e-05 0.214281 0.25369 55.845 -6.6684e-08 
258 1 0.0357106 0.250069 0.253772 55.845 4.81179e-07 
260 1 -4.0445e-05 0.142872 0.253729 55.845 5.25036e-07 
262 1 0.0357511 0.178602 0.253757 55.845 6.11823e-07 
264 1 0.0714223 0.214254 0.253584 55.845 8.1742e-07 
266 1 0.107012 0.249982 0.253696 55.845 7.03537e-07 
272 1 0.0714591 0.142883 0.253788 55.845 8.41949e-07 
274 1 0.107093 0.178593 0.25359 55.845 9.75963e-07 
11 1 0.142943 0.178601 0.462308 55.845 3.63271e-07 
12 1 0.178635 0.214274 0.462296 55.845 1.14686e-07 
17 1 0.178624 0.14297 0.462344 55.845 2.29389e-07 
18 1 0.214258 0.178755 0.462362 55.845 3.32249e-07 
19 1 0.250018 0.214406 0.462185 55.845 2.1468e-07 
24 1 0.25005 0.142899 0.462017 55.845 3.52697e-07 
71 1 0.142861 0.178465 0.379023 55.845 8.6306e-07 
72 1 0.142833 0.214315 0.419849 55.845 -1.21887e-06 
73 1 0.178466 0.214261 0.379124 55.845 7.95171e-07 
82 1 0.142775 0.142888 0.420069 55.845 -1.2179e-06 
83 1 0.178568 0.142835 0.379244 55.845 7.85112e-07 
84 1 0.178489 0.178478 0.4199 55.845 -8.74668e-07 
85 1 0.214379 0.178546 0.37897 55.845 9.04608e-07 
86 1 0.214217 0.214253 0.420117 55.845 -5.02401e-07 
87 1 0.250076 0.21437 0.379046 55.845 8.06709e-07 
96 1 0.214226 0.142909 0.42014 55.845 -8.65111e-07 
97 1 0.249976 0.142849 0.379176 55.845 8.25875e-07 
98 1 0.250075 0.178615 0.420022 55.845 -5.97318e-07 
173 1 0.142819 0.178489 0.296002 55.845 -8.57615e-07 
174 1 0.142811 0.214298 0.337749 55.845 2.28308e-07 
175 1 0.178616 0.214201 0.296192 55.845 -6.95436e-07 
184 1 0.142811 0.142766 0.337803 55.845 3.7839e-07 
185 1 0.178569 0.142725 0.296129 55.845 -6.79508e-07 
186 1 0.178598 0.178525 0.338045 55.845 4.19113e-07 
187 1 0.214333 0.178471 0.296037 55.845 -7.06931e-07 
188 1 0.214296 0.214312 0.338104 55.845 6.30578e-07 
189 1 0.250044 0.214213 0.296136 55.845 -6.88552e-07 
198 1 0.214309 0.142772 0.338058 55.845 3.51954e-07 
199 1 0.250091 0.142871 0.296153 55.845 -5.67368e-07 
200 1 0.25009 0.178592 0.337985 55.845 4.91288e-07 
276 1 0.14285 0.214239 0.253719 55.845 7.4155e-07 
286 1 0.142813 0.142776 0.253678 55.845 7.90175e-07 
288 1 0.178625 0.178602 0.253934 55.845 7.59312e-07 
290 1 0.214376 0.214273 0.253931 55.845 8.1394e-07 
300 1 0.214412 0.142699 0.253932 55.845 4.11981e-07 
302 1 0.249868 0.178512 0.253577 55.845 6.40816e-07 
25 1 0.285752 0.178515 0.462238 55.845 2.85816e-07 
26 1 0.321534 0.214323 0.462103 55.845 1.56371e-07 
31 1 0.321413 0.142866 0.462405 55.845 3.88684e-07 
32 1 0.357088 0.178455 0.46205 55.845 5.26664e-07 
99 1 0.285802 0.17869 0.379116 55.845 7.85899e-07 
100 1 0.285691 0.214294 0.419922 55.845 -8.76866e-07 
101 1 0.321516 0.214365 0.379182 55.845 6.85833e-07 
110 1 0.285831 0.142914 0.419778 55.845 -9.67917e-07 
111 1 0.321407 0.142936 0.379099 55.845 8.4543e-07 
112 1 0.321555 0.178571 0.41996 55.845 -9.1311e-07 
113 1 0.357199 0.178555 0.378945 55.845 1.03275e-06 
114 1 0.357074 0.214301 0.419902 55.845 -1.02635e-06 
126 1 0.357079 0.142823 0.419921 55.845 -9.3018e-07 
201 1 0.28563 0.1786 0.295884 55.845 -8.67385e-07 
202 1 0.285873 0.214346 0.33801 55.845 3.66062e-07 
203 1 0.321349 0.214319 0.29601 55.845 -9.1607e-07 
212 1 0.285685 0.142955 0.337957 55.845 2.07939e-07 
213 1 0.321408 0.142943 0.29597 55.845 -5.54108e-07 
214 1 0.321425 0.178682 0.337673 55.845 2.18337e-07 
215 1 0.357149 0.178666 0.295993 55.845 -7.64789e-07 