ITEM: TIMESTEP
0
ITEM: NUMBER OF ATOMS
5880
ITEM: BOX BOUNDS pp pp ff
-28.1245 28.1245
-28.1245 28.1245
0 34.092
ITEM: ATOMS id type xs ys zs mass q 
259 1 0 0.107143 0.208333 55.845 2.23153e-12 
267 1 0 0.0357143 0.208333 55.845 2.29543e-12 
269 1 0.0357143 0.0714286 0.208333 55.845 2.21979e-12 
271 1 0.0714286 0.107143 0.208333 55.845 2.15148e-12 
279 1 0.0357143 0 0.208333 55.845 2.30875e-12 
281 1 0.0714286 0.0357143 0.208333 55.845 2.21659e-12 
283 1 0.107143 0.0714286 0.208333 55.845 2.13348e-12 
293 1 0.107143 0 0.208333 55.845 2.22518e-12 
361 1 0 0.107143 0.125 55.845 1.37829e-12 
369 1 0 0.0357143 0.125 55.845 1.43007e-12 
370 1 0 0.0714286 0.166667 55.845 1.35278e-12 
371 1 0.0357143 0.0714286 0.125 55.845 1.36879e-12 
372 1 0.0357143 0.107143 0.166667 55.845 1.29536e-12 
373 1 0.0714286 0.107143 0.125 55.845 1.31308e-12 
380 1 0 0 0.166667 55.845 1.43435e-12 
381 1 0.0357143 0 0.125 55.845 1.44052e-12 
382 1 0.0357143 0.0357143 0.166667 55.845 1.35413e-12 
383 1 0.0714286 0.0357143 0.125 55.845 1.36598e-12 
384 1 0.0714286 0.0714286 0.166667 55.845 1.27935e-12 
385 1 0.107143 0.0714286 0.125 55.845 1.29834e-12 
386 1 0.107143 0.107143 0.166667 55.845 1.21341e-12 
394 1 0.0714286 0 0.166667 55.845 1.36235e-12 
395 1 0.107143 0 0.125 55.845 1.37274e-12 
396 1 0.107143 0.0357143 0.166667 55.845 1.27614e-12 
463 1 0 0.107143 0.0416667 55.845 -3.21391e-13 
471 1 0 0.0357143 0.0416667 55.845 -2.89245e-13 
472 1 0 0.0714286 0.0833333 55.845 2.02623e-12 
473 1 0.0357143 0.0714286 0.0416667 55.845 -3.27662e-13 
474 1 0.0357143 0.107143 0.0833333 55.845 1.98459e-12 
475 1 0.0714286 0.107143 0.0416667 55.845 -3.62348e-13 
482 1 0 0 0.0833333 55.845 2.08521e-12 
483 1 0.0357143 0 0.0416667 55.845 -2.8283e-13 
484 1 0.0357143 0.0357143 0.0833333 55.845 2.02703e-12 
485 1 0.0714286 0.0357143 0.0416667 55.845 -3.29421e-13 
486 1 0.0714286 0.0714286 0.0833333 55.845 1.97288e-12 
487 1 0.107143 0.0714286 0.0416667 55.845 -3.71652e-13 
488 1 0.107143 0.107143 0.0833333 55.845 1.925e-12 
496 1 0.0714286 0 0.0833333 55.845 2.03286e-12 
497 1 0.107143 0 0.0416667 55.845 -3.2511e-13 
498 1 0.107143 0.0357143 0.0833333 55.845 1.97033e-12 
567 1 0 0.0714286 0 55.845 -1.24466e-11 
568 1 0.0357143 0.107143 0 55.845 -1.24677e-11 
572 1 0 0 0 55.845 -1.24164e-11 
573 1 0.0357143 0.0357143 0 55.845 -1.24463e-11 
574 1 0.0714286 0.0714286 0 55.845 -1.2474e-11 
575 1 0.107143 0.107143 0 55.845 -1.24985e-11 
579 1 0.0714286 0 0 55.845 -1.24434e-11 
580 1 0.107143 0.0357143 0 55.845 -1.24753e-11 
285 1 0.142857 0.107143 0.208333 55.845 2.06532e-12 
295 1 0.142857 0.0357143 0.208333 55.845 2.13592e-12 
297 1 0.178571 0.0714286 0.208333 55.845 2.06548e-12 
299 1 0.214286 0.107143 0.208333 55.845 2.02054e-12 
307 1 0.178571 0 0.208333 55.845 2.16233e-12 
309 1 0.214286 0.0357143 0.208333 55.845 2.09624e-12 
311 1 0.25 0.0714286 0.208333 55.845 2.05552e-12 
387 1 0.142857 0.107143 0.125 55.845 1.24266e-12 
397 1 0.142857 0.0357143 0.125 55.845 1.30016e-12 
398 1 0.142857 0.0714286 0.166667 55.845 1.2024e-12 
399 1 0.178571 0.0714286 0.125 55.845 1.24299e-12 
400 1 0.178571 0.107143 0.166667 55.845 1.14764e-12 
401 1 0.214286 0.107143 0.125 55.845 1.20603e-12 
408 1 0.142857 0 0.166667 55.845 1.28961e-12 
409 1 0.178571 0 0.125 55.845 1.32181e-12 
410 1 0.178571 0.0357143 0.166667 55.845 1.21583e-12 
411 1 0.214286 0.0357143 0.125 55.845 1.26799e-12 
412 1 0.214286 0.0714286 0.166667 55.845 1.16347e-12 
413 1 0.25 0.0714286 0.125 55.845 1.23454e-12 
414 1 0.25 0.107143 0.166667 55.845 1.13722e-12 
424 1 0.214286 0 0.166667 55.845 1.25487e-12 
426 1 0.25 0.0357143 0.166667 55.845 1.2078e-12 
489 1 0.142857 0.107143 0.0416667 55.845 -4.06703e-13 
499 1 0.142857 0.0357143 0.0416667 55.845 -3.70537e-13 
500 1 0.142857 0.0714286 0.0833333 55.845 1.91671e-12 
501 1 0.178571 0.0714286 0.0416667 55.845 -4.06803e-13 
502 1 0.178571 0.107143 0.0833333 55.845 1.8768e-12 
503 1 0.214286 0.107143 0.0416667 55.845 -4.2987e-13 
510 1 0.142857 0 0.0833333 55.845 1.98002e-12 
511 1 0.178571 0 0.0416667 55.845 -3.56938e-13 
512 1 0.178571 0.0357143 0.0833333 55.845 1.92637e-12 
513 1 0.214286 0.0357143 0.0416667 55.845 -3.90969e-13 
514 1 0.214286 0.0714286 0.0833333 55.845 1.88858e-12 
515 1 0.25 0.0714286 0.0416667 55.845 -4.12142e-13 
516 1 0.25 0.107143 0.0833333 55.845 1.86933e-12 
526 1 0.214286 0 0.0833333 55.845 1.9551e-12 
528 1 0.25 0.0357143 0.0833333 55.845 1.92084e-12 
581 1 0.142857 0.0714286 0 55.845 -1.2503e-11 
582 1 0.178571 0.107143 0 55.845 -1.25237e-11 
586 1 0.142857 0 0 55.845 -1.24703e-11 
587 1 0.178571 0.0357143 0 55.845 -1.24981e-11 
588 1 0.214286 0.0714286 0 55.845 -1.25179e-11 
589 1 0.25 0.107143 0 55.845 -1.25276e-11 
594 1 0.214286 0 0 55.845 -1.24833e-11 
595 1 0.25 0.0357143 0 55.845 -1.25012e-11 
313 1 0.285714 0.107143 0.208333 55.845 2.04284e-12 
323 1 0.25 0 0.208333 55.845 2.15437e-12 
325 1 0.285714 0.0357143 0.208333 55.845 2.11751e-12 
327 1 0.321429 0.0714286 0.208333 55.845 2.10276e-12 
329 1 0.357143 0.107143 0.208333 55.845 2.10819e-12 
337 1 0.321429 0 0.208333 55.845 2.19807e-12 
339 1 0.357143 0.0357143 0.208333 55.845 2.17787e-12 
415 1 0.285714 0.107143 0.125 55.845 1.22447e-12 
425 1 0.25 0 0.125 55.845 1.31566e-12 
427 1 0.285714 0.0357143 0.125 55.845 1.28583e-12 
428 1 0.285714 0.0714286 0.166667 55.845 1.18415e-12 
429 1 0.321429 0.0714286 0.125 55.845 1.27415e-12 
430 1 0.321429 0.107143 0.166667 55.845 1.18323e-12 
431 1 0.357143 0.107143 0.125 55.845 1.27898e-12 
439 1 0.321429 0 0.125 55.845 1.35221e-12 
440 1 0.321429 0.0357143 0.166667 55.845 1.25043e-12 
441 1 0.357143 0.0357143 0.125 55.845 1.33622e-12 
442 1 0.357143 0.0714286 0.166667 55.845 1.24252e-12 
517 1 0.285714 0.107143 0.0416667 55.845 -4.18188e-13 
527 1 0.25 0 0.0416667 55.845 -3.60767e-13 
529 1 0.285714 0.0357143 0.0416667 55.845 -3.79686e-13 
530 1 0.285714 0.0714286 0.0833333 55.845 1.9034e-12 
531 1 0.321429 0.0714286 0.0416667 55.845 -3.86967e-13 
532 1 0.321429 0.107143 0.0833333 55.845 1.90322e-12 
533 1 0.357143 0.107143 0.0416667 55.845 -3.83312e-13 
603 1 0.357143 0.0714286 0 55.845 -1.24874e-11 
541 1 0.321429 0 0.0416667 55.845 -3.37733e-13 
542 1 0.321429 0.0357143 0.0833333 55.845 1.95217e-12 
543 1 0.357143 0.0357143 0.0416667 55.845 -3.47568e-13 
544 1 0.357143 0.0714286 0.0833333 55.845 1.94685e-12 
602 1 0.321429 0.0357143 0 55.845 -1.24849e-11 
596 1 0.285714 0.0714286 0 55.845 -1.251e-11 
597 1 0.321429 0.107143 0 55.845 -1.25099e-11 
612 1 0.464286 0.0357143 0 55.845 -1.24415e-11 
611 1 0.428571 0 0 55.845 -1.24318e-11 
610 1 0.464286 0.107143 0 55.845 -1.24656e-11 
609 1 0.428571 0.0714286 0 55.845 -1.24645e-11 
608 1 0.392857 0.0357143 0 55.845 -1.24607e-11 
341 1 0.392857 0.0714286 0.208333 55.845 2.16962e-12 
343 1 0.428571 0.107143 0.208333 55.845 2.17093e-12 
348 1 0.392857 0 0.208333 55.845 2.26191e-12 
350 1 0.428571 0.0357143 0.208333 55.845 2.23917e-12 
352 1 0.464286 0.0714286 0.208333 55.845 2.22034e-12 
355 1 0.464286 0 0.208333 55.845 2.31391e-12 
443 1 0.392857 0.0714286 0.125 55.845 1.33014e-12 
444 1 0.392857 0.107143 0.166667 55.845 1.24822e-12 
445 1 0.428571 0.107143 0.125 55.845 1.33181e-12 
604 1 0.392857 0.107143 0 55.845 -1.24845e-11 
450 1 0.392857 0 0.125 55.845 1.4059e-12 
451 1 0.392857 0.0357143 0.166667 55.845 1.3118e-12 
452 1 0.428571 0.0357143 0.125 55.845 1.38783e-12 
453 1 0.428571 0.0714286 0.166667 55.845 1.30054e-12 
454 1 0.464286 0.0714286 0.125 55.845 1.37298e-12 
455 1 0.464286 0.107143 0.166667 55.845 1.29593e-12 
456 1 0.428571 0 0.166667 55.845 1.38659e-12 
457 1 0.464286 0 0.125 55.845 1.44963e-12 
458 1 0.464286 0.0357143 0.166667 55.845 1.36017e-12 
545 1 0.392857 0.0714286 0.0416667 55.845 -3.50961e-13 
546 1 0.392857 0.107143 0.0833333 55.845 1.95161e-12 
547 1 0.428571 0.107143 0.0416667 55.845 -3.49372e-13 
552 1 0.392857 0 0.0416667 55.845 -3.03197e-13 
553 1 0.392857 0.0357143 0.0833333 55.845 1.99795e-12 
554 1 0.428571 0.0357143 0.0416667 55.845 -3.14228e-13 
555 1 0.428571 0.0714286 0.0833333 55.845 1.99034e-12 
556 1 0.464286 0.0714286 0.0416667 55.845 -3.23299e-13 
557 1 0.464286 0.107143 0.0833333 55.845 1.98751e-12 
558 1 0.428571 0 0.0833333 55.845 2.0534e-12 
559 1 0.464286 0 0.0416667 55.845 -2.74929e-13 
560 1 0.464286 0.0357143 0.0833333 55.845 2.03437e-12 
255 1 0 0.178571 0.208333 55.845 2.21892e-12 
257 1 0.0357143 0.214286 0.208333 55.845 2.19169e-12 
261 1 0.0357143 0.142857 0.208333 55.845 2.18231e-12 
263 1 0.0714286 0.178571 0.208333 55.845 2.13704e-12 
265 1 0.107143 0.214286 0.208333 55.845 2.09855e-12 
273 1 0.107143 0.142857 0.208333 55.845 2.09189e-12 
357 1 0 0.178571 0.125 55.845 1.36898e-12 
358 1 0 0.214286 0.166667 55.845 1.32763e-12 
359 1 0.0357143 0.214286 0.125 55.845 1.34647e-12 
360 1 0.0357143 0.25 0.166667 55.845 1.31035e-12 
362 1 0 0.142857 0.166667 55.845 1.31878e-12 
363 1 0.0357143 0.142857 0.125 55.845 1.33859e-12 
364 1 0.0357143 0.178571 0.166667 55.845 1.28401e-12 
365 1 0.0714286 0.178571 0.125 55.845 1.30192e-12 
366 1 0.0714286 0.214286 0.166667 55.845 1.25147e-12 
367 1 0.107143 0.214286 0.125 55.845 1.27006e-12 
368 1 0.107143 0.25 0.166667 55.845 1.225e-12 
374 1 0.0714286 0.142857 0.166667 55.845 1.2436e-12 
375 1 0.107143 0.142857 0.125 55.845 1.26469e-12 
376 1 0.107143 0.178571 0.166667 55.845 1.19828e-12 
459 1 0 0.178571 0.0416667 55.845 -3.27214e-13 
460 1 0 0.214286 0.0833333 55.845 2.00854e-12 
461 1 0.0357143 0.214286 0.0416667 55.845 -3.41466e-13 
462 1 0.0357143 0.25 0.0833333 55.845 1.99617e-12 
464 1 0 0.142857 0.0833333 55.845 2.00167e-12 
465 1 0.0357143 0.142857 0.0416667 55.845 -3.46357e-13 
466 1 0.0357143 0.178571 0.0833333 55.845 1.97636e-12 
467 1 0.0714286 0.178571 0.0416667 55.845 -3.69595e-13 
468 1 0.0714286 0.214286 0.0833333 55.845 1.95283e-12 
469 1 0.107143 0.214286 0.0416667 55.845 -3.89711e-13 
470 1 0.107143 0.25 0.0833333 55.845 1.93387e-12 
476 1 0.0714286 0.142857 0.0833333 55.845 1.9469e-12 
477 1 0.107143 0.142857 0.0416667 55.845 -3.92851e-13 
478 1 0.107143 0.178571 0.0833333 55.845 1.91385e-12 
561 1 0 0.214286 0 55.845 -1.24556e-11 
562 1 0.0357143 0.25 0 55.845 -1.24621e-11 
563 1 0 0.142857 0 55.845 -1.24591e-11 
564 1 0.0357143 0.178571 0 55.845 -1.24722e-11 
565 1 0.0714286 0.214286 0 55.845 -1.24846e-11 
566 1 0.107143 0.25 0 55.845 -1.24945e-11 
569 1 0.0714286 0.142857 0 55.845 -1.24873e-11 
570 1 0.107143 0.178571 0 55.845 -1.25047e-11 
275 1 0.142857 0.178571 0.208333 55.845 2.04529e-12 
277 1 0.178571 0.214286 0.208333 55.845 2.02082e-12 
287 1 0.178571 0.142857 0.208333 55.845 2.01714e-12 
289 1 0.214286 0.178571 0.208333 55.845 1.99589e-12 
291 1 0.25 0.214286 0.208333 55.845 2.00757e-12 
301 1 0.25 0.142857 0.208333 55.845 2.00448e-12 
377 1 0.142857 0.178571 0.125 55.845 1.22674e-12 
378 1 0.142857 0.214286 0.166667 55.845 1.16564e-12 
379 1 0.178571 0.214286 0.125 55.845 1.20676e-12 
388 1 0.142857 0.142857 0.166667 55.845 1.16101e-12 
389 1 0.178571 0.142857 0.125 55.845 1.20353e-12 
390 1 0.178571 0.178571 0.166667 55.845 1.12705e-12 
391 1 0.214286 0.178571 0.125 55.845 1.1866e-12 
392 1 0.214286 0.214286 0.166667 55.845 1.1196e-12 
393 1 0.25 0.214286 0.125 55.845 1.19613e-12 
402 1 0.214286 0.142857 0.166667 55.845 1.11705e-12 
403 1 0.25 0.142857 0.125 55.845 1.19346e-12 
404 1 0.25 0.178571 0.166667 55.845 1.11441e-12 
479 1 0.142857 0.178571 0.0416667 55.845 -4.16988e-13 
480 1 0.142857 0.214286 0.0833333 55.845 1.88987e-12 
481 1 0.178571 0.214286 0.0416667 55.845 -4.29367e-13 
490 1 0.142857 0.142857 0.0833333 55.845 1.88626e-12 
491 1 0.178571 0.142857 0.0416667 55.845 -4.31269e-13 
492 1 0.178571 0.178571 0.0833333 55.845 1.86176e-12 
493 1 0.214286 0.178571 0.0416667 55.845 -4.42119e-13 
494 1 0.214286 0.214286 0.0833333 55.845 1.85651e-12 
495 1 0.25 0.214286 0.0416667 55.845 -4.35823e-13 
504 1 0.214286 0.142857 0.0833333 55.845 1.85432e-12 
505 1 0.25 0.142857 0.0416667 55.845 -4.37548e-13 
506 1 0.25 0.178571 0.0833333 55.845 1.85301e-12 
571 1 0.142857 0.214286 0 55.845 -1.2517e-11 
576 1 0.142857 0.142857 0 55.845 -1.25186e-11 
577 1 0.178571 0.178571 0 55.845 -1.25316e-11 
578 1 0.214286 0.214286 0 55.845 -1.25343e-11 
583 1 0.214286 0.142857 0 55.845 -1.25353e-11 
584 1 0.25 0.178571 0 55.845 -1.25361e-11 
303 1 0.285714 0.178571 0.208333 55.845 2.01908e-12 
305 1 0.321429 0.214286 0.208333 55.845 2.06256e-12 
315 1 0.321429 0.142857 0.208333 55.845 2.05605e-12 
317 1 0.357143 0.178571 0.208333 55.845 2.09067e-12 
405 1 0.285714 0.178571 0.125 55.845 1.20613e-12 
406 1 0.285714 0.214286 0.166667 55.845 1.14238e-12 
407 1 0.321429 0.214286 0.125 55.845 1.24199e-12 
416 1 0.285714 0.142857 0.166667 55.845 1.13846e-12 
417 1 0.321429 0.142857 0.125 55.845 1.23638e-12 
418 1 0.321429 0.178571 0.166667 55.845 1.16454e-12 
419 1 0.357143 0.178571 0.125 55.845 1.26541e-12 
420 1 0.357143 0.214286 0.166667 55.845 1.21131e-12 
432 1 0.357143 0.142857 0.166667 55.845 1.20224e-12 
507 1 0.285714 0.178571 0.0416667 55.845 -4.29614e-13 
508 1 0.285714 0.214286 0.0833333 55.845 1.8735e-12 
509 1 0.321429 0.214286 0.0416667 55.845 -4.06682e-13 
518 1 0.285714 0.142857 0.0833333 55.845 1.87023e-12 
519 1 0.321429 0.142857 0.0416667 55.845 -4.10364e-13 
520 1 0.321429 0.178571 0.0833333 55.845 1.88989e-12 
521 1 0.357143 0.178571 0.0416667 55.845 -3.91748e-13 
522 1 0.357143 0.214286 0.0833333 55.845 1.92475e-12 
534 1 0.357143 0.142857 0.0833333 55.845 1.91763e-12 
585 1 0.285714 0.214286 0 55.845 -1.25252e-11 
590 1 0.285714 0.142857 0 55.845 -1.2527e-11 
591 1 0.321429 0.178571 0 55.845 -1.25167e-11 
592 1 0.357143 0.214286 0 55.845 -1.24986e-11 
598 1 0.357143 0.142857 0 55.845 -1.25021e-11 
319 1 0.392857 0.214286 0.208333 55.845 2.1412e-12 
321 1 0.428571 0.25 0.208333 55.845 2.20029e-12 
331 1 0.392857 0.142857 0.208333 55.845 2.12827e-12 
333 1 0.428571 0.178571 0.208333 55.845 2.1591e-12 
335 1 0.464286 0.214286 0.208333 55.845 2.1974e-12 
345 1 0.464286 0.142857 0.208333 55.845 2.17991e-12 
606 1 0.464286 0.178571 0 55.845 -1.24696e-11 
421 1 0.392857 0.214286 0.125 55.845 1.30741e-12 
422 1 0.392857 0.25 0.166667 55.845 1.27198e-12 
423 1 0.428571 0.25 0.125 55.845 1.35651e-12 
433 1 0.392857 0.142857 0.125 55.845 1.29664e-12 
434 1 0.392857 0.178571 0.166667 55.845 1.23564e-12 
435 1 0.428571 0.178571 0.125 55.845 1.3225e-12 
436 1 0.428571 0.214286 0.166667 55.845 1.27806e-12 
437 1 0.464286 0.214286 0.125 55.845 1.35403e-12 
605 1 0.428571 0.142857 0 55.845 -1.24782e-11 
446 1 0.428571 0.142857 0.166667 55.845 1.26361e-12 
447 1 0.464286 0.142857 0.125 55.845 1.34025e-12 
448 1 0.464286 0.178571 0.166667 55.845 1.28603e-12 
523 1 0.392857 0.214286 0.0416667 55.845 -3.65044e-13 
524 1 0.392857 0.25 0.0833333 55.845 1.96957e-12 
525 1 0.428571 0.25 0.0416667 55.845 -3.33841e-13 
535 1 0.392857 0.142857 0.0416667 55.845 -3.71777e-13 
536 1 0.392857 0.178571 0.0833333 55.845 1.94258e-12 
537 1 0.428571 0.178571 0.0416667 55.845 -3.5531e-13 
538 1 0.428571 0.214286 0.0833333 55.845 1.97412e-12 
539 1 0.464286 0.214286 0.0416667 55.845 -3.35372e-13 
548 1 0.428571 0.142857 0.0833333 55.845 1.96335e-12 
549 1 0.464286 0.142857 0.0416667 55.845 -3.43768e-13 
550 1 0.464286 0.178571 0.0833333 55.845 1.9803e-12 
593 1 0.392857 0.25 0 55.845 -1.24753e-11 
599 1 0.392857 0.178571 0 55.845 -1.24891e-11 
600 1 0.428571 0.214286 0 55.845 -1.24728e-11 
3 1 0 0.107143 0.458333 55.845 1.56651e-12 
7 1 0 0.0357143 0.458333 55.845 1.617e-12 
8 1 0.0357143 0.0714286 0.458333 55.845 1.55959e-12 
9 1 0.0714286 0.107143 0.458333 55.845 1.5064e-12 
13 1 0.0357143 0 0.458333 55.845 1.62626e-12 
14 1 0.0714286 0.0357143 0.458333 55.845 1.55776e-12 
15 1 0.107143 0.0714286 0.458333 55.845 1.49442e-12 
20 1 0.107143 0 0.458333 55.845 1.56364e-12 
55 1 0 0.107143 0.375 55.845 2.35935e-12 
63 1 0 0.0357143 0.375 55.845 2.42297e-12 
64 1 0 0.0714286 0.416667 55.845 1.52228e-12 
65 1 0.0357143 0.0714286 0.375 55.845 2.34965e-12 
66 1 0.0357143 0.107143 0.416667 55.845 1.46687e-12 
67 1 0.0714286 0.107143 0.375 55.845 2.28296e-12 
74 1 0 0 0.416667 55.845 1.59961e-12 
75 1 0.0357143 0 0.375 55.845 2.43526e-12 
76 1 0.0357143 0.0357143 0.416667 55.845 1.52482e-12 
77 1 0.0714286 0.0357143 0.375 55.845 2.34755e-12 
78 1 0.0714286 0.0714286 0.416667 55.845 1.45326e-12 
79 1 0.107143 0.0714286 0.375 55.845 2.2671e-12 
80 1 0.107143 0.107143 0.416667 55.845 1.39037e-12 
88 1 0.0714286 0 0.416667 55.845 1.53187e-12 
89 1 0.107143 0 0.375 55.845 2.35497e-12 
90 1 0.107143 0.0357143 0.416667 55.845 1.4513e-12 
157 1 0 0.107143 0.291667 55.845 3.68318e-12 
165 1 0 0.0357143 0.291667 55.845 3.75163e-12 
166 1 0 0.0714286 0.333333 55.845 3.36211e-12 
167 1 0.0357143 0.0714286 0.291667 55.845 3.67183e-12 
168 1 0.0357143 0.107143 0.333333 55.845 3.29768e-12 
169 1 0.0714286 0.107143 0.291667 55.845 3.59976e-12 
176 1 0 0 0.333333 55.845 3.4526e-12 
177 1 0.0357143 0 0.291667 55.845 3.76538e-12 
178 1 0.0357143 0.0357143 0.333333 55.845 3.36448e-12 
179 1 0.0714286 0.0357143 0.291667 55.845 3.66884e-12 
180 1 0.0714286 0.0714286 0.333333 55.845 3.28137e-12 
181 1 0.107143 0.0714286 0.291667 55.845 3.5817e-12 
182 1 0.107143 0.107143 0.333333 55.845 3.20816e-12 
190 1 0.0714286 0 0.333333 55.845 3.37322e-12 
191 1 0.107143 0 0.291667 55.845 3.67772e-12 
192 1 0.107143 0.0357143 0.333333 55.845 3.27836e-12 
268 1 0 0.0714286 0.25 55.845 3.2933e-12 
270 1 0.0357143 0.107143 0.25 55.845 3.22831e-12 
278 1 0 0 0.25 55.845 3.38587e-12 
280 1 0.0357143 0.0357143 0.25 55.845 3.29602e-12 
282 1 0.0714286 0.0714286 0.25 55.845 3.21149e-12 
284 1 0.107143 0.107143 0.25 55.845 3.13677e-12 
292 1 0.0714286 0 0.25 55.845 3.30466e-12 
294 1 0.107143 0.0357143 0.25 55.845 3.20756e-12 
16 1 0.142857 0.107143 0.458333 55.845 1.44163e-12 
21 1 0.142857 0.0357143 0.458333 55.845 1.49732e-12 
22 1 0.178571 0.0714286 0.458333 55.845 1.44337e-12 
23 1 0.214286 0.107143 0.458333 55.845 1.40749e-12 
27 1 0.178571 0 0.458333 55.845 1.51666e-12 
28 1 0.214286 0.0357143 0.458333 55.845 1.46659e-12 
29 1 0.25 0.0714286 0.458333 55.845 1.43335e-12 
81 1 0.142857 0.107143 0.375 55.845 2.20102e-12 
91 1 0.142857 0.0357143 0.375 55.845 2.27055e-12 
92 1 0.142857 0.0714286 0.416667 55.845 1.38133e-12 
93 1 0.178571 0.0714286 0.375 55.845 2.20238e-12 
94 1 0.178571 0.107143 0.416667 55.845 1.32907e-12 
95 1 0.214286 0.107143 0.375 55.845 2.1577e-12 
102 1 0.142857 0 0.416667 55.845 1.46371e-12 
103 1 0.178571 0 0.375 55.845 2.29504e-12 
104 1 0.178571 0.0357143 0.416667 55.845 1.39477e-12 
105 1 0.214286 0.0357143 0.375 55.845 2.23189e-12 
106 1 0.214286 0.0714286 0.416667 55.845 1.34434e-12 
107 1 0.25 0.0714286 0.375 55.845 2.19081e-12 
108 1 0.25 0.107143 0.416667 55.845 1.31738e-12 
118 1 0.214286 0 0.416667 55.845 1.43008e-12 
120 1 0.25 0.0357143 0.416667 55.845 1.38471e-12 
183 1 0.142857 0.107143 0.291667 55.845 3.50988e-12 
193 1 0.142857 0.0357143 0.291667 55.845 3.58444e-12 
194 1 0.142857 0.0714286 0.333333 55.845 3.19703e-12 
195 1 0.178571 0.0714286 0.291667 55.845 3.51082e-12 
196 1 0.178571 0.107143 0.333333 55.845 3.13622e-12 
197 1 0.214286 0.107143 0.291667 55.845 3.4632e-12 
204 1 0.142857 0 0.333333 55.845 3.29275e-12 
205 1 0.178571 0 0.291667 55.845 3.61178e-12 
206 1 0.178571 0.0357143 0.333333 55.845 3.21214e-12 
207 1 0.214286 0.0357143 0.291667 55.845 3.54297e-12 
208 1 0.214286 0.0714286 0.333333 55.845 3.15432e-12 
209 1 0.25 0.0714286 0.291667 55.845 3.49976e-12 
210 1 0.25 0.107143 0.333333 55.845 3.12368e-12 
220 1 0.214286 0 0.333333 55.845 3.25372e-12 
222 1 0.25 0.0357143 0.333333 55.845 3.20203e-12 
296 1 0.142857 0.0714286 0.25 55.845 3.12446e-12 
298 1 0.178571 0.107143 0.25 55.845 3.06297e-12 
306 1 0.142857 0 0.25 55.845 3.22223e-12 
308 1 0.178571 0.0357143 0.25 55.845 3.13981e-12 
310 1 0.214286 0.0714286 0.25 55.845 3.08108e-12 
312 1 0.25 0.107143 0.25 55.845 3.05101e-12 
322 1 0.214286 0 0.25 55.845 3.183e-12 
324 1 0.25 0.0357143 0.25 55.845 3.13037e-12 
30 1 0.285714 0.107143 0.458333 55.845 1.42016e-12 
35 1 0.25 0 0.458333 55.845 1.50766e-12 
36 1 0.285714 0.0357143 0.458333 55.845 1.47757e-12 
37 1 0.321429 0.0714286 0.458333 55.845 1.46269e-12 
38 1 0.357143 0.107143 0.458333 55.845 1.46349e-12 
42 1 0.321429 0 0.458333 55.845 1.53358e-12 
43 1 0.357143 0.0357143 0.458333 55.845 1.51583e-12 
109 1 0.285714 0.107143 0.375 55.845 2.17591e-12 
119 1 0.25 0 0.375 55.845 2.28519e-12 
121 1 0.285714 0.0357143 0.375 55.845 2.24872e-12 
122 1 0.285714 0.0714286 0.416667 55.845 1.3592e-12 
123 1 0.321429 0.0714286 0.375 55.845 2.2317e-12 
124 1 0.321429 0.107143 0.416667 55.845 1.35503e-12 
125 1 0.357143 0.107143 0.375 55.845 2.23374e-12 
133 1 0.321429 0 0.375 55.845 2.32162e-12 
134 1 0.321429 0.0357143 0.416667 55.845 1.41802e-12 
135 1 0.357143 0.0357143 0.375 55.845 2.30069e-12 
136 1 0.357143 0.0714286 0.416667 55.845 1.40726e-12 
211 1 0.285714 0.107143 0.291667 55.845 3.48525e-12 
221 1 0.25 0 0.291667 55.845 3.60224e-12 
223 1 0.285714 0.0357143 0.291667 55.845 3.56384e-12 
224 1 0.285714 0.0714286 0.333333 55.845 3.17399e-12 
225 1 0.321429 0.0714286 0.291667 55.845 3.5471e-12 
226 1 0.321429 0.107143 0.333333 55.845 3.17073e-12 
227 1 0.357143 0.107143 0.291667 55.845 3.55123e-12 
235 1 0.321429 0 0.291667 55.845 3.64588e-12 
236 1 0.321429 0.0357143 0.333333 55.845 3.24461e-12 
237 1 0.357143 0.0357143 0.291667 55.845 3.62428e-12 
238 1 0.357143 0.0714286 0.333333 55.845 3.23367e-12 
326 1 0.285714 0.0714286 0.25 55.845 3.10292e-12 
328 1 0.321429 0.107143 0.25 55.845 3.10131e-12 
338 1 0.321429 0.0357143 0.25 55.845 3.17657e-12 
340 1 0.357143 0.0714286 0.25 55.845 3.16681e-12 
44 1 0.392857 0.0714286 0.458333 55.845 1.50719e-12 
45 1 0.428571 0.107143 0.458333 55.845 1.50663e-12 
47 1 0.392857 0 0.458333 55.845 1.57499e-12 
48 1 0.428571 0.0357143 0.458333 55.845 1.55715e-12 
49 1 0.464286 0.0714286 0.458333 55.845 1.54263e-12 
50 1 0.464286 0 0.458333 55.845 1.61093e-12 
137 1 0.392857 0.0714286 0.375 55.845 2.29066e-12 
138 1 0.392857 0.107143 0.416667 55.845 1.40984e-12 
139 1 0.428571 0.107143 0.375 55.845 2.29006e-12 
144 1 0.392857 0 0.375 55.845 2.37719e-12 
145 1 0.392857 0.0357143 0.416667 55.845 1.4686e-12 
146 1 0.428571 0.0357143 0.375 55.845 2.35478e-12 
147 1 0.428571 0.0714286 0.416667 55.845 1.45619e-12 
148 1 0.464286 0.0714286 0.375 55.845 2.33599e-12 
149 1 0.464286 0.107143 0.416667 55.845 1.45086e-12 
150 1 0.428571 0 0.416667 55.845 1.53485e-12 
151 1 0.464286 0 0.375 55.845 2.42398e-12 
152 1 0.464286 0.0357143 0.416667 55.845 1.50982e-12 
239 1 0.392857 0.0714286 0.291667 55.845 3.61421e-12 
240 1 0.392857 0.107143 0.333333 55.845 3.2373e-12 
241 1 0.428571 0.107143 0.291667 55.845 3.61439e-12 
246 1 0.392857 0 0.291667 55.845 3.70984e-12 
247 1 0.392857 0.0357143 0.333333 55.845 3.30671e-12 
248 1 0.428571 0.0357143 0.291667 55.845 3.68577e-12 
249 1 0.428571 0.0714286 0.333333 55.845 3.29284e-12 
250 1 0.464286 0.0714286 0.291667 55.845 3.66522e-12 
251 1 0.464286 0.107143 0.333333 55.845 3.28612e-12 
252 1 0.428571 0 0.333333 55.845 3.38555e-12 
253 1 0.464286 0 0.291667 55.845 3.76217e-12 
254 1 0.464286 0.0357143 0.333333 55.845 3.35608e-12 
342 1 0.392857 0.107143 0.25 55.845 3.1719e-12 
349 1 0.392857 0.0357143 0.25 55.845 3.24314e-12 
351 1 0.428571 0.0714286 0.25 55.845 3.22979e-12 
353 1 0.464286 0.107143 0.25 55.845 3.22364e-12 
354 1 0.428571 0 0.25 55.845 3.32548e-12 
356 1 0.464286 0.0357143 0.25 55.845 3.29533e-12 
1 1 0 0.178571 0.458333 55.845 1.55426e-12 
2 1 0.0357143 0.214286 0.458333 55.845 1.5317e-12 
4 1 0.0357143 0.142857 0.458333 55.845 1.52805e-12 
5 1 0.0714286 0.178571 0.458333 55.845 1.49262e-12 
6 1 0.107143 0.214286 0.458333 55.845 1.46265e-12 
10 1 0.107143 0.142857 0.458333 55.845 1.46005e-12 
51 1 0 0.178571 0.375 55.845 2.34497e-12 
52 1 0 0.214286 0.416667 55.845 1.49173e-12 
53 1 0.0357143 0.214286 0.375 55.845 2.31771e-12 
54 1 0.0357143 0.25 0.416667 55.845 1.47316e-12 
56 1 0 0.142857 0.416667 55.845 1.48691e-12 
57 1 0.0357143 0.142857 0.375 55.845 2.31144e-12 
58 1 0.0357143 0.178571 0.416667 55.845 1.45293e-12 
59 1 0.0714286 0.178571 0.375 55.845 2.26748e-12 
60 1 0.0714286 0.214286 0.416667 55.845 1.42126e-12 
61 1 0.107143 0.214286 0.375 55.845 2.22949e-12 
62 1 0.107143 0.25 0.416667 55.845 1.39465e-12 
68 1 0.0714286 0.142857 0.416667 55.845 1.41684e-12 
69 1 0.107143 0.142857 0.375 55.845 2.22512e-12 
70 1 0.107143 0.178571 0.416667 55.845 1.37353e-12 
153 1 0 0.178571 0.291667 55.845 3.66909e-12 
154 1 0 0.214286 0.333333 55.845 3.3295e-12 
155 1 0.0357143 0.214286 0.291667 55.845 3.64001e-12 
156 1 0.0357143 0.25 0.333333 55.845 3.30931e-12 
158 1 0 0.142857 0.333333 55.845 3.3218e-12 
159 1 0.0357143 0.142857 0.291667 55.845 3.6313e-12 
160 1 0.0357143 0.178571 0.333333 55.845 3.28323e-12 
161 1 0.0714286 0.178571 0.291667 55.845 3.58401e-12 
162 1 0.0714286 0.214286 0.333333 55.845 3.24706e-12 
163 1 0.107143 0.214286 0.291667 55.845 3.54342e-12 
164 1 0.107143 0.25 0.333333 55.845 3.21686e-12 
170 1 0.0714286 0.142857 0.333333 55.845 3.2401e-12 
171 1 0.107143 0.142857 0.291667 55.845 3.53712e-12 
172 1 0.107143 0.178571 0.333333 55.845 3.19017e-12 
256 1 0 0.214286 0.25 55.845 3.26313e-12 
258 1 0.0357143 0.25 0.25 55.845 3.24324e-12 
260 1 0 0.142857 0.25 55.845 3.25384e-12 
262 1 0.0357143 0.178571 0.25 55.845 3.21503e-12 
264 1 0.0714286 0.214286 0.25 55.845 3.17849e-12 
266 1 0.107143 0.25 0.25 55.845 3.14795e-12 
272 1 0.0714286 0.142857 0.25 55.845 3.16987e-12 
274 1 0.107143 0.178571 0.25 55.845 3.11927e-12 
11 1 0.142857 0.178571 0.458333 55.845 1.42495e-12 
12 1 0.178571 0.214286 0.458333 55.845 1.40641e-12 
17 1 0.178571 0.142857 0.458333 55.845 1.40471e-12 
18 1 0.214286 0.178571 0.458333 55.845 1.38853e-12 
19 1 0.25 0.214286 0.458333 55.845 1.39639e-12 
24 1 0.25 0.142857 0.458333 55.845 1.3936e-12 
71 1 0.142857 0.178571 0.375 55.845 2.18073e-12 
72 1 0.142857 0.214286 0.416667 55.845 1.34271e-12 
73 1 0.178571 0.214286 0.375 55.845 2.15691e-12 
82 1 0.142857 0.142857 0.416667 55.845 1.34014e-12 
83 1 0.178571 0.142857 0.375 55.845 2.1545e-12 
84 1 0.178571 0.178571 0.416667 55.845 1.30813e-12 
85 1 0.214286 0.178571 0.375 55.845 2.13396e-12 
86 1 0.214286 0.214286 0.416667 55.845 1.30095e-12 
87 1 0.25 0.214286 0.375 55.845 2.14369e-12 
96 1 0.214286 0.142857 0.416667 55.845 1.29913e-12 
97 1 0.25 0.142857 0.375 55.845 2.14123e-12 
98 1 0.25 0.178571 0.416667 55.845 1.29555e-12 
173 1 0.142857 0.178571 0.291667 55.845 3.48856e-12 
174 1 0.142857 0.214286 0.333333 55.845 3.154e-12 
175 1 0.178571 0.214286 0.291667 55.845 3.46288e-12 
184 1 0.142857 0.142857 0.333333 55.845 3.14976e-12 
185 1 0.178571 0.142857 0.291667 55.845 3.45953e-12 
186 1 0.178571 0.178571 0.333333 55.845 3.11268e-12 
187 1 0.214286 0.178571 0.291667 55.845 3.4374e-12 
188 1 0.214286 0.214286 0.333333 55.845 3.10394e-12 
189 1 0.25 0.214286 0.291667 55.845 3.44842e-12 
198 1 0.214286 0.142857 0.333333 55.845 3.10177e-12 
199 1 0.25 0.142857 0.291667 55.845 3.44583e-12 
200 1 0.25 0.178571 0.333333 55.845 3.09835e-12 
276 1 0.142857 0.214286 0.25 55.845 3.08219e-12 
286 1 0.142857 0.142857 0.25 55.845 3.0772e-12 
288 1 0.178571 0.178571 0.25 55.845 3.03908e-12 
290 1 0.214286 0.214286 0.25 55.845 3.03047e-12 
300 1 0.214286 0.142857 0.25 55.845 3.02778e-12 
302 1 0.25 0.178571 0.25 55.845 3.02476e-12 
25 1 0.285714 0.178571 0.458333 55.845 1.40327e-12 
26 1 0.321429 0.214286 0.458333 55.845 1.43352e-12 
31 1 0.321429 0.142857 0.458333 55.845 1.42748e-12 
32 1 0.357143 0.178571 0.458333 55.845 1.45178e-12 
99 1 0.285714 0.178571 0.375 55.845 2.15387e-12 
100 1 0.285714 0.214286 0.416667 55.845 1.31962e-12 
101 1 0.321429 0.214286 0.375 55.845 2.1929e-12 
110 1 0.285714 0.142857 0.416667 55.845 1.31554e-12 
111 1 0.321429 0.142857 0.375 55.845 2.18657e-12 
112 1 0.321429 0.178571 0.416667 55.845 1.33762e-12 
113 1 0.357143 0.178571 0.375 55.845 2.21775e-12 
114 1 0.357143 0.214286 0.416667 55.845 1.37884e-12 
126 1 0.357143 0.142857 0.416667 55.845 1.36978e-12 
201 1 0.285714 0.178571 0.291667 55.845 3.46036e-12 
202 1 0.285714 0.214286 0.333333 55.845 3.12686e-12 
203 1 0.321429 0.214286 0.291667 55.845 3.50434e-12 
212 1 0.285714 0.142857 0.333333 55.845 3.1229e-12 
213 1 0.321429 0.142857 0.291667 55.845 3.49778e-12 
214 1 0.321429 0.178571 0.333333 55.845 3.1497e-12 
215 1 0.357143 0.178571 0.291667 55.845 3.53284e-12 
216 1 0.357143 0.214286 0.333333 55.845 3.19872e-12 
228 1 0.357143 0.142857 0.333333 55.845 3.1888e-12 
304 1 0.285714 0.214286 0.25 55.845 3.05498e-12 
314 1 0.285714 0.142857 0.25 55.845 3.05095e-12 
316 1 0.321429 0.178571 0.25 55.845 3.07947e-12 
318 1 0.357143 0.214286 0.25 55.845 3.13111e-12 
330 1 0.357143 0.142857 0.25 55.845 3.121e-12 
33 1 0.392857 0.214286 0.458333 55.845 1.48788e-12 
34 1 0.428571 0.25 0.458333 55.845 1.52968e-12 
39 1 0.392857 0.142857 0.458333 55.845 1.47694e-12 
40 1 0.428571 0.178571 0.458333 55.845 1.49957e-12 
41 1 0.464286 0.214286 0.458333 55.845 1.52758e-12 
46 1 0.464286 0.142857 0.458333 55.845 1.51344e-12 
115 1 0.392857 0.214286 0.375 55.845 2.26406e-12 
116 1 0.392857 0.25 0.416667 55.845 1.43164e-12 
117 1 0.428571 0.25 0.375 55.845 2.31833e-12 
127 1 0.392857 0.142857 0.375 55.845 2.25145e-12 
128 1 0.392857 0.178571 0.416667 55.845 1.39883e-12 
129 1 0.428571 0.178571 0.375 55.845 2.27977e-12 
130 1 0.428571 0.214286 0.416667 55.845 1.43695e-12 
131 1 0.464286 0.214286 0.375 55.845 2.31519e-12 
140 1 0.428571 0.142857 0.416667 55.845 1.42236e-12 
141 1 0.464286 0.142857 0.375 55.845 2.29831e-12 
142 1 0.464286 0.178571 0.416667 55.845 1.44282e-12 
217 1 0.392857 0.214286 0.291667 55.845 3.58446e-12 
218 1 0.392857 0.25 0.333333 55.845 3.26219e-12 
219 1 0.428571 0.25 0.291667 55.845 3.64493e-12 
229 1 0.392857 0.142857 0.291667 55.845 3.57104e-12 
230 1 0.392857 0.178571 0.333333 55.845 3.22331e-12 
231 1 0.428571 0.178571 0.291667 55.845 3.60226e-12 
232 1 0.428571 0.214286 0.333333 55.845 3.26846e-12 
233 1 0.464286 0.214286 0.291667 55.845 3.64146e-12 
242 1 0.428571 0.142857 0.333333 55.845 3.25213e-12 