ITEM: TIMESTEP
3200
ITEM: NUMBER OF ATOMS
5880
ITEM: BOX BOUNDS pp pp ff
-27.9921 27.9921
-27.9922 27.9922
0 34.092
ITEM: ATOMS id type xs ys zs mass q 
259 1 -2.9554e-05 0.107209 0.208139 55.845 -1.41435e-07 
267 1 -1.89829e-05 0.0357797 0.208099 55.845 -2.26719e-07 
269 1 0.0356759 0.0714994 0.20804 55.845 -2.17692e-07 
271 1 0.0714215 0.107146 0.208053 55.845 -6.0196e-07 
279 1 0.0357116 5.01334e-05 0.20816 55.845 -4.67444e-07 
281 1 0.0714165 0.0357623 0.208094 55.845 -1.86257e-07 
283 1 0.107112 0.0714456 0.208026 55.845 -5.6238e-08 
293 1 0.107129 6.54656e-06 0.208223 55.845 -5.29886e-07 
361 1 -2.63831e-05 0.107159 0.12331 55.845 2.07585e-07 
369 1 4.54967e-05 0.0356674 0.123391 55.845 2.57812e-07 
370 1 -6.87268e-05 0.0715073 0.165699 55.845 2.60692e-08 
371 1 0.0357252 0.0714528 0.123396 55.845 1.08646e-07 
372 1 0.035687 0.107174 0.165729 55.845 -1.68055e-07 
373 1 0.0714791 0.107064 0.123425 55.845 1.20734e-07 
380 1 2.65917e-05 -1.27885e-05 0.165922 55.845 -2.583e-07 
381 1 0.0357339 -3.26594e-05 0.123448 55.845 2.58973e-07 
382 1 0.0357426 0.0357177 0.165806 55.845 -2.12557e-08 
383 1 0.0714685 0.0357154 0.12337 55.845 2.71179e-07 
384 1 0.0714176 0.0713829 0.165808 55.845 1.02297e-07 
385 1 0.107182 0.0714685 0.12353 55.845 -2.14307e-10 
386 1 0.10719 0.107142 0.165699 55.845 -1.31287e-07 
394 1 0.0714183 1.11387e-05 0.165728 55.845 -2.83167e-07 
395 1 0.107162 2.33084e-05 0.123259 55.845 1.73495e-07 
396 1 0.107179 0.0356695 0.165751 55.845 2.61981e-07 
463 1 0 0.107143 0.0416667 55.845 -4.88827e-07 
471 1 0 0.0357143 0.0416667 55.845 -4.59396e-07 
472 1 -4.5743e-05 0.0714919 0.0817438 55.845 -2.40377e-07 
473 1 0.0357143 0.0714286 0.0416667 55.845 -4.81977e-07 
474 1 0.0357585 0.107195 0.0818484 55.845 -1.23768e-07 
475 1 0.0714286 0.107143 0.0416667 55.845 -1.95811e-07 
482 1 -1.95025e-05 -9.42609e-06 0.0816808 55.845 -2.77365e-07 
483 1 0.0357143 0 0.0416667 55.845 -1.78983e-07 
484 1 0.0356888 0.0356818 0.081767 55.845 -3.65091e-08 
485 1 0.0714286 0.0357143 0.0416667 55.845 -6.23186e-07 
486 1 0.0714758 0.0714094 0.0817145 55.845 -9.79701e-08 
487 1 0.107143 0.0714286 0.0416667 55.845 -6.05605e-07 
488 1 0.107175 0.107114 0.0817722 55.845 1.63887e-08 
496 1 0.0714658 -5.82428e-05 0.0816887 55.845 1.61293e-07 
497 1 0.107143 0 0.0416667 55.845 -3.77185e-07 
498 1 0.10718 0.0357084 0.0817387 55.845 4.16896e-08 
567 1 0 0.0714286 0 55.845 1.59639e-07 
568 1 0.0357143 0.107143 0 55.845 5.42105e-07 
572 1 0 0 0 55.845 3.19358e-07 
573 1 0.0357143 0.0357143 0 55.845 2.67055e-07 
574 1 0.0714286 0.0714286 0 55.845 2.10762e-07 
575 1 0.107143 0.107143 0 55.845 7.52546e-08 
579 1 0.0714286 0 0 55.845 1.89068e-07 
580 1 0.107143 0.0357143 0 55.845 6.51303e-08 
285 1 0.142895 0.107141 0.20817 55.845 -3.83181e-07 
295 1 0.142824 0.0356905 0.20812 55.845 -6.67934e-08 
297 1 0.17849 0.071467 0.208155 55.845 -4.21576e-07 
299 1 0.214298 0.107108 0.20819 55.845 -1.99604e-07 
307 1 0.178557 -9.10477e-06 0.208184 55.845 -4.98409e-07 
309 1 0.214227 0.0356696 0.208066 55.845 -2.07707e-07 
311 1 0.249942 0.0714577 0.208118 55.845 -1.0737e-07 
387 1 0.142843 0.107106 0.123417 55.845 1.42241e-07 
397 1 0.142795 0.0357312 0.123364 55.845 3.5278e-07 
398 1 0.142872 0.0713432 0.165849 55.845 6.68236e-09 
399 1 0.178627 0.0714662 0.123333 55.845 1.34485e-07 
400 1 0.178588 0.107215 0.165812 55.845 -1.74736e-07 
401 1 0.214265 0.107208 0.123347 55.845 1.35146e-07 
408 1 0.142863 -3.26468e-05 0.165766 55.845 -2.67464e-08 
409 1 0.178544 -7.37652e-05 0.123369 55.845 3.86776e-07 
410 1 0.178517 0.0357015 0.165846 55.845 1.31946e-07 
411 1 0.214315 0.035723 0.123347 55.845 4.21385e-07 
412 1 0.214276 0.0714666 0.16574 55.845 -4.60192e-08 
413 1 0.250048 0.0714633 0.123349 55.845 4.12262e-07 
414 1 0.249979 0.107133 0.165762 55.845 2.11137e-07 
424 1 0.214296 -8.65676e-06 0.165853 55.845 -1.89982e-07 
426 1 0.250034 0.0357334 0.16578 55.845 1.90114e-07 
489 1 0.142857 0.107143 0.0416667 55.845 3.47533e-08 
499 1 0.142857 0.0357143 0.0416667 55.845 -4.05488e-07 
500 1 0.142877 0.0714432 0.0816651 55.845 1.64409e-07 
501 1 0.178571 0.0714286 0.0416667 55.845 -3.40598e-07 
502 1 0.178613 0.107193 0.0816203 55.845 1.44319e-07 
503 1 0.214286 0.107143 0.0416667 55.845 -4.26475e-07 
510 1 0.142892 2.26483e-05 0.0816594 55.845 1.16454e-07 
511 1 0.178571 0 0.0416667 55.845 -1.62594e-07 
512 1 0.178535 0.0356549 0.0817634 55.845 6.26231e-08 
513 1 0.214286 0.0357143 0.0416667 55.845 -5.16904e-07 
514 1 0.214333 0.07148 0.0816897 55.845 -1.58432e-07 
515 1 0.25 0.0714286 0.0416667 55.845 -4.40177e-07 
516 1 0.250015 0.10718 0.0816329 55.845 2.34491e-08 
526 1 0.214305 -2.53429e-05 0.0815979 55.845 -9.85118e-08 
528 1 0.24999 0.0357458 0.0817234 55.845 8.59762e-08 
581 1 0.142857 0.0714286 0 55.845 2.18537e-07 
582 1 0.178571 0.107143 0 55.845 3.16367e-07 
586 1 0.142857 0 0 55.845 3.28013e-07 
587 1 0.178571 0.0357143 0 55.845 2.5841e-07 
588 1 0.214286 0.0714286 0 55.845 5.84154e-08 
589 1 0.25 0.107143 0 55.845 1.21978e-07 
594 1 0.214286 0 0 55.845 1.59359e-07 
595 1 0.25 0.0357143 0 55.845 2.83528e-07 
313 1 0.285654 0.10716 0.208141 55.845 -2.26494e-07 
323 1 0.250019 3.62464e-05 0.20805 55.845 -2.20853e-08 
325 1 0.285738 0.0356819 0.208175 55.845 -3.73296e-07 
327 1 0.321436 0.0714476 0.208126 55.845 -3.77325e-07 
329 1 0.357159 0.107162 0.208202 55.845 5.28753e-08 
337 1 0.321448 1.98396e-05 0.208118 55.845 -2.1132e-07 
339 1 0.357123 0.0357427 0.208097 55.845 -4.06706e-07 
415 1 0.28573 0.107079 0.123365 55.845 2.88591e-07 
425 1 0.250025 4.63376e-05 0.123346 55.845 2.01926e-07 
427 1 0.285728 0.0357364 0.123287 55.845 2.49625e-07 
428 1 0.285624 0.0714697 0.165834 55.845 -1.87407e-08 
429 1 0.321386 0.0714338 0.123377 55.845 -1.30671e-08 
430 1 0.321419 0.107111 0.165806 55.845 1.91303e-07 
431 1 0.357057 0.107173 0.123453 55.845 1.65068e-07 
439 1 0.321477 0.000101178 0.123279 55.845 1.74416e-07 
440 1 0.321422 0.0357175 0.165754 55.845 -2.18556e-07 
441 1 0.357126 0.035718 0.123389 55.845 3.39403e-07 
442 1 0.357127 0.0715024 0.16583 55.845 2.34075e-07 
517 1 0.285714 0.107143 0.0416667 55.845 -3.3187e-07 
527 1 0.25 0 0.0416667 55.845 -3.35068e-07 
529 1 0.285714 0.0357143 0.0416667 55.845 1.78411e-08 
530 1 0.285667 0.0714385 0.0816458 55.845 1.72937e-07 
531 1 0.321429 0.0714286 0.0416667 55.845 -2.21351e-07 
532 1 0.321478 0.107131 0.0816705 55.845 -5.94472e-08 
533 1 0.357143 0.107143 0.0416667 55.845 -6.53423e-07 
603 1 0.357143 0.0714286 0 55.845 -7.49646e-08 
541 1 0.321429 0 0.0416667 55.845 -2.28348e-07 
542 1 0.321438 0.0357687 0.0815842 55.845 1.56322e-07 
543 1 0.357143 0.0357143 0.0416667 55.845 -4.63854e-07 
544 1 0.357109 0.0714754 0.0817756 55.845 1.07631e-07 
602 1 0.321429 0.0357143 0 55.845 3.90025e-07 
596 1 0.285714 0.0714286 0 55.845 1.35835e-07 
597 1 0.321429 0.107143 0 55.845 -2.2287e-08 
612 1 0.464286 0.0357143 0 55.845 2.54125e-07 
611 1 0.428571 0 0 55.845 1.5429e-07 
610 1 0.464286 0.107143 0 55.845 -1.71122e-08 
609 1 0.428571 0.0714286 0 55.845 7.23537e-07 
608 1 0.392857 0.0357143 0 55.845 2.21525e-07 
341 1 0.392843 0.0714204 0.208049 55.845 -2.98636e-07 
343 1 0.428614 0.107114 0.208157 55.845 -3.27012e-07 
348 1 0.392848 6.87936e-05 0.208102 55.845 -8.12806e-08 
350 1 0.428589 0.0356926 0.208152 55.845 -3.05129e-07 
352 1 0.464279 0.0713698 0.208073 55.845 -1.61299e-09 
355 1 0.464336 3.60515e-05 0.208028 55.845 -3.10855e-07 
443 1 0.392852 0.0714583 0.123402 55.845 -1.486e-08 
444 1 0.392852 0.107074 0.165712 55.845 3.26924e-07 
445 1 0.428555 0.107208 0.123332 55.845 2.02217e-07 
604 1 0.392857 0.107143 0 55.845 1.25331e-07 
450 1 0.392828 3.04153e-05 0.123409 55.845 4.59566e-07 
451 1 0.39283 0.035725 0.165741 55.845 1.13677e-08 
452 1 0.428557 0.0357401 0.123357 55.845 3.65613e-08 
453 1 0.42854 0.0714191 0.165621 55.845 -3.42206e-07 
454 1 0.464245 0.0715131 0.123267 55.845 1.24288e-07 
455 1 0.464245 0.107106 0.165693 55.845 1.54522e-07 
456 1 0.428556 8.77702e-05 0.165723 55.845 1.5492e-07 
457 1 0.46424 3.81938e-07 0.123307 55.845 4.57926e-07 
458 1 0.464245 0.0357477 0.165706 55.845 5.59862e-08 
545 1 0.392857 0.0714286 0.0416667 55.845 -3.61885e-07 
546 1 0.392932 0.107131 0.0818153 55.845 -1.8134e-07 
547 1 0.428571 0.107143 0.0416667 55.845 -3.67475e-07 
552 1 0.392857 0 0.0416667 55.845 -5.05474e-07 
553 1 0.392861 0.0357044 0.081666 55.845 2.21462e-07 
554 1 0.428571 0.0357143 0.0416667 55.845 -2.35362e-07 
555 1 0.428591 0.0714274 0.0816442 55.845 -1.02874e-07 
556 1 0.464286 0.0714286 0.0416667 55.845 -3.55748e-07 
557 1 0.464359 0.107252 0.0816243 55.845 -1.65085e-07 
558 1 0.428524 -3.07387e-05 0.0817071 55.845 3.51079e-08 
559 1 0.464286 0 0.0416667 55.845 -4.23691e-07 
560 1 0.464333 0.0357695 0.0816436 55.845 -2.1541e-07 
255 1 -3.2413e-05 0.178626 0.207998 55.845 -8.72117e-08 
257 1 0.0356937 0.214264 0.208063 55.845 -6.50897e-08 
261 1 0.0357081 0.142827 0.208085 55.845 -4.02363e-07 
263 1 0.0714256 0.178591 0.208128 55.845 -7.35276e-09 
265 1 0.107165 0.214251 0.208178 55.845 -2.22669e-07 
273 1 0.10712 0.142878 0.207964 55.845 -3.32346e-07 
357 1 2.34246e-05 0.178629 0.123251 55.845 3.24172e-07 
358 1 1.82305e-05 0.214323 0.165629 55.845 4.55208e-08 
359 1 0.0356918 0.214354 0.123442 55.845 4.09459e-07 
360 1 0.0357327 0.250077 0.165815 55.845 1.58716e-08 
362 1 -3.80086e-05 0.142949 0.16561 55.845 -1.88293e-07 
363 1 0.0357276 0.142922 0.12327 55.845 2.86952e-07 
364 1 0.0357195 0.178551 0.165783 55.845 -1.50439e-07 
365 1 0.0714625 0.178596 0.123302 55.845 3.85185e-07 
366 1 0.0714692 0.214323 0.16578 55.845 -2.17075e-07 
367 1 0.107162 0.214343 0.123378 55.845 1.46715e-07 
368 1 0.107131 0.249951 0.165826 55.845 -2.7182e-07 
374 1 0.0713771 0.142907 0.165722 55.845 -4.11743e-08 
375 1 0.107107 0.14287 0.123342 55.845 4.82543e-07 
376 1 0.107153 0.178646 0.165722 55.845 1.42247e-07 
459 1 0 0.178571 0.0416667 55.845 -3.35014e-07 
460 1 6.7741e-05 0.214323 0.0815325 55.845 -8.0961e-08 
461 1 0.0357143 0.214286 0.0416667 55.845 -1.69612e-07 
462 1 0.0356291 0.249996 0.0817487 55.845 -3.46818e-08 
464 1 -3.18607e-05 0.142902 0.0816331 55.845 -1.65795e-07 
465 1 0.0357143 0.142857 0.0416667 55.845 -2.88255e-07 
466 1 0.0357893 0.178585 0.0817311 55.845 -2.87491e-09 
467 1 0.0714286 0.178571 0.0416667 55.845 -4.93777e-07 
468 1 0.0714291 0.214354 0.0817134 55.845 -2.07727e-07 
469 1 0.107143 0.214286 0.0416667 55.845 -3.85297e-07 
470 1 0.107129 0.250028 0.0816872 55.845 5.62395e-08 
476 1 0.0714645 0.142845 0.081692 55.845 -6.01805e-08 
477 1 0.107143 0.142857 0.0416667 55.845 -4.50609e-07 
478 1 0.107109 0.178551 0.0816485 55.845 -2.32792e-07 
561 1 0 0.214286 0 55.845 1.19978e-07 
562 1 0.0357143 0.25 0 55.845 4.0703e-07 
563 1 0 0.142857 0 55.845 4.86665e-08 
564 1 0.0357143 0.178571 0 55.845 1.08791e-07 
565 1 0.0714286 0.214286 0 55.845 2.82836e-07 
566 1 0.107143 0.25 0 55.845 3.11264e-07 
569 1 0.0714286 0.142857 0 55.845 2.58455e-07 
570 1 0.107143 0.178571 0 55.845 -2.59104e-07 
275 1 0.142834 0.178618 0.208116 55.845 7.62629e-08 
277 1 0.178597 0.214286 0.208058 55.845 -1.91802e-07 
287 1 0.178559 0.142862 0.208147 55.845 -2.51501e-07 
289 1 0.214252 0.178636 0.20805 55.845 -4.30232e-08 
291 1 0.250084 0.214344 0.208138 55.845 -3.54275e-08 
301 1 0.249986 0.142912 0.208082 55.845 -1.62514e-07 
377 1 0.142825 0.178545 0.123314 55.845 5.47568e-07 
378 1 0.142831 0.214343 0.165814 55.845 -1.23652e-07 
379 1 0.178584 0.214319 0.123399 55.845 3.11611e-07 
388 1 0.142898 0.142866 0.165776 55.845 4.49481e-08 
389 1 0.178586 0.142887 0.123361 55.845 3.3737e-07 
390 1 0.178586 0.178599 0.1657 55.845 -1.65361e-07 
391 1 0.214245 0.178592 0.123352 55.845 1.21306e-07 
392 1 0.2143 0.214288 0.165762 55.845 -3.0474e-07 
393 1 0.250003 0.214233 0.123386 55.845 5.01726e-07 
402 1 0.214205 0.142903 0.165737 55.845 -1.76657e-07 
403 1 0.249993 0.14288 0.12343 55.845 2.08551e-07 
404 1 0.249993 0.178578 0.16566 55.845 -3.91909e-07 
479 1 0.142857 0.178571 0.0416667 55.845 -4.80685e-07 
480 1 0.142791 0.21434 0.0817425 55.845 7.27413e-08 
481 1 0.178571 0.214286 0.0416667 55.845 -3.81555e-07 
490 1 0.142831 0.142879 0.0816274 55.845 1.73517e-07 
491 1 0.178571 0.142857 0.0416667 55.845 -3.73285e-07 
492 1 0.178558 0.178566 0.0817345 55.845 -3.93462e-07 
493 1 0.214286 0.178571 0.0416667 55.845 -5.55758e-07 
494 1 0.214297 0.214283 0.0817407 55.845 -5.95171e-08 
495 1 0.25 0.214286 0.0416667 55.845 -2.75762e-07 
504 1 0.214276 0.142915 0.0817008 55.845 -3.94449e-07 
505 1 0.25 0.142857 0.0416667 55.845 -2.87905e-07 
506 1 0.249949 0.178602 0.0816966 55.845 -1.83535e-07 
571 1 0.142857 0.214286 0 55.845 3.54543e-07 
576 1 0.142857 0.142857 0 55.845 1.14101e-07 
577 1 0.178571 0.178571 0 55.845 1.77136e-07 
578 1 0.214286 0.214286 0 55.845 2.88825e-07 
583 1 0.214286 0.142857 0 55.845 2.53237e-07 
584 1 0.25 0.178571 0 55.845 4.38626e-07 
303 1 0.285661 0.178644 0.208125 55.845 -4.21363e-07 
305 1 0.321392 0.214267 0.208134 55.845 -1.2343e-07 
315 1 0.321465 0.142897 0.20818 55.845 -4.30851e-07 
317 1 0.357179 0.178587 0.208297 55.845 -4.16052e-07 
405 1 0.285708 0.178565 0.123364 55.845 3.14402e-07 
406 1 0.285711 0.214283 0.165864 55.845 1.25216e-07 
407 1 0.321387 0.21433 0.123309 55.845 4.3876e-07 
416 1 0.285694 0.142784 0.165758 55.845 -9.52436e-08 
417 1 0.321427 0.142863 0.123421 55.845 1.20805e-07 
418 1 0.32143 0.178554 0.165735 55.845 -3.21201e-07 
419 1 0.357141 0.178563 0.123411 55.845 1.57725e-07 
420 1 0.357128 0.214333 0.165782 55.845 1.91876e-07 
432 1 0.35713 0.142932 0.165804 55.845 -2.11644e-08 
507 1 0.285714 0.178571 0.0416667 55.845 -1.35527e-07 
508 1 0.285722 0.214242 0.0816566 55.845 -3.71277e-08 
509 1 0.321429 0.214286 0.0416667 55.845 -4.48395e-07 
518 1 0.28573 0.142829 0.0816868 55.845 -2.56268e-08 
519 1 0.321429 0.142857 0.0416667 55.845 -2.86242e-07 
520 1 0.321411 0.178567 0.0818085 55.845 -3.31454e-08 
521 1 0.357143 0.178571 0.0416667 55.845 -9.20705e-08 
522 1 0.357174 0.214323 0.0818109 55.845 9.75498e-08 
534 1 0.35717 0.142831 0.0818383 55.845 -5.82367e-08 
585 1 0.285714 0.214286 0 55.845 2.1825e-07 
590 1 0.285714 0.142857 0 55.845 5.87077e-08 
591 1 0.321429 0.178571 0 55.845 3.29992e-07 
592 1 0.357143 0.214286 0 55.845 2.60788e-07 
598 1 0.357143 0.142857 0 55.845 2.14405e-07 
319 1 0.392865 0.214265 0.208168 55.845 -3.23422e-08 
321 1 0.428539 0.249969 0.208072 55.845 -7.05095e-09 
331 1 0.392902 0.14286 0.208053 55.845 -1.8962e-07 
333 1 0.428596 0.178573 0.208053 55.845 -5.10573e-07 
335 1 0.46425 0.214217 0.208156 55.845 -1.7232e-07 
345 1 0.464306 0.142833 0.208175 55.845 -3.89342e-07 
606 1 0.464286 0.178571 0 55.845 -1.23847e-07 
421 1 0.392839 0.214298 0.123343 55.845 3.53897e-07 
422 1 0.392909 0.250035 0.165714 55.845 2.32118e-07 
423 1 0.42857 0.249995 0.123372 55.845 -6.13519e-09 
433 1 0.392838 0.142868 0.123452 55.845 1.72171e-07 
434 1 0.392849 0.178528 0.165635 55.845 -2.66819e-07 
435 1 0.428668 0.178574 0.123344 55.845 2.67855e-07 
436 1 0.428546 0.214289 0.165775 55.845 -8.56846e-08 
437 1 0.464278 0.21433 0.12338 55.845 3.95965e-07 
605 1 0.428571 0.142857 0 55.845 -1.04365e-07 
446 1 0.428592 0.142885 0.165813 55.845 -9.84999e-08 
447 1 0.464285 0.142891 0.123368 55.845 6.78181e-07 
448 1 0.464293 0.178605 0.165727 55.845 -1.39968e-07 
523 1 0.392857 0.214286 0.0416667 55.845 -1.70508e-07 
524 1 0.392901 0.250037 0.0815828 55.845 -1.04716e-08 
525 1 0.428571 0.25 0.0416667 55.845 -4.9207e-07 
535 1 0.392857 0.142857 0.0416667 55.845 -3.13623e-07 
536 1 0.392865 0.178521 0.081843 55.845 2.42668e-07 
537 1 0.428571 0.178571 0.0416667 55.845 -1.6932e-07 
538 1 0.428563 0.214331 0.0816374 55.845 -4.59046e-08 
539 1 0.464286 0.214286 0.0416667 55.845 -2.07456e-07 
548 1 0.428536 0.142883 0.0817553 55.845 -1.25931e-07 
549 1 0.464286 0.142857 0.0416667 55.845 -5.89276e-07 
550 1 0.46432 0.178595 0.0816675 55.845 2.10187e-08 
593 1 0.392857 0.25 0 55.845 2.49552e-07 
599 1 0.392857 0.178571 0 55.845 4.36925e-07 
600 1 0.428571 0.214286 0 55.845 2.50929e-07 
3 1 2.89097e-05 0.107149 0.458393 55.845 7.2598e-08 
7 1 7.42781e-07 0.035693 0.458349 55.845 -6.74379e-08 
8 1 0.0357492 0.0714391 0.458406 55.845 9.56203e-08 
9 1 0.0715007 0.107153 0.458284 55.845 2.00717e-07 
13 1 0.0356943 -8.22057e-05 0.458272 55.845 -1.29344e-07 
14 1 0.0713866 0.0356614 0.458282 55.845 -8.38442e-08 
15 1 0.107181 0.0714525 0.458291 55.845 8.79354e-08 
20 1 0.107125 5.8019e-05 0.458372 55.845 7.52736e-08 
55 1 9.33541e-05 0.107239 0.37492 55.845 1.89799e-07 
63 1 0.000115126 0.0357641 0.375026 55.845 1.57649e-07 
64 1 7.49311e-05 0.0715006 0.416911 55.845 2.18406e-07 
65 1 0.0357698 0.0714055 0.374908 55.845 2.85135e-07 
66 1 0.0357817 0.107221 0.416851 55.845 1.36014e-07 
67 1 0.0713767 0.107114 0.374947 55.845 3.66192e-07 
74 1 2.21209e-05 -1.45911e-05 0.416801 55.845 -1.86618e-07 
75 1 0.0357078 -1.72124e-05 0.375044 55.845 1.699e-07 
76 1 0.0357556 0.0357785 0.416777 55.845 1.37535e-07 
77 1 0.0715142 0.0356483 0.374903 55.845 8.09031e-08 
78 1 0.0714058 0.0714346 0.416791 55.845 6.41138e-08 
79 1 0.107139 0.0714347 0.374897 55.845 -1.41471e-07 
80 1 0.107168 0.107193 0.416769 55.845 -2.48841e-07 
88 1 0.0713976 -4.90136e-05 0.416799 55.845 1.01916e-07 
89 1 0.107204 -2.00335e-05 0.375034 55.845 3.16166e-07 
90 1 0.107075 0.0357399 0.416842 55.845 -2.76682e-07 
157 1 6.12797e-05 0.107187 0.291192 55.845 2.98732e-07 
165 1 9.12838e-05 0.0357974 0.291015 55.845 4.23792e-07 
166 1 4.65018e-05 0.0715086 0.333245 55.845 -2.70038e-07 
167 1 0.0357974 0.0714857 0.29104 55.845 2.13725e-07 
168 1 0.0357753 0.107198 0.332986 55.845 -2.27368e-07 
169 1 0.0714714 0.107154 0.290944 55.845 2.62812e-07 
176 1 -2.90609e-05 3.85695e-05 0.333134 55.845 -1.74005e-07 
177 1 0.0357437 1.90344e-05 0.291275 55.845 2.64149e-07 
178 1 0.0357582 0.0357483 0.333018 55.845 -3.53292e-07 
179 1 0.0715175 0.0356903 0.291027 55.845 3.32732e-07 
180 1 0.0715027 0.0714478 0.333026 55.845 -3.50368e-07 
181 1 0.107122 0.0714255 0.290953 55.845 5.26364e-07 
182 1 0.107092 0.107187 0.333101 55.845 -1.9183e-07 
190 1 0.0714482 1.57577e-05 0.333127 55.845 -1.20771e-07 
191 1 0.107136 3.98801e-06 0.291094 55.845 1.9926e-07 
192 1 0.107209 0.0357473 0.33293 55.845 -2.87285e-07 
268 1 -5.48676e-05 0.0714382 0.249751 55.845 2.81644e-07 
270 1 0.0356594 0.107198 0.249615 55.845 6.42643e-08 
278 1 4.63277e-05 -3.22414e-05 0.249662 55.845 1.77202e-07 
280 1 0.0357836 0.035734 0.249626 55.845 1.45859e-07 
282 1 0.0714492 0.0714957 0.249539 55.845 3.34835e-07 
284 1 0.107199 0.107223 0.249587 55.845 3.50996e-07 
292 1 0.0713954 -3.08608e-06 0.249807 55.845 1.32226e-08 
294 1 0.107162 0.0357328 0.249617 55.845 5.34232e-07 
16 1 0.142885 0.107174 0.458407 55.845 -3.39595e-08 
21 1 0.142867 0.0357095 0.458332 55.845 6.64018e-08 
22 1 0.178545 0.0714531 0.458358 55.845 2.65083e-07 
23 1 0.214296 0.107152 0.458474 55.845 -9.40289e-08 
27 1 0.178601 -4.03534e-05 0.458311 55.845 -2.11119e-07 
28 1 0.214349 0.0356898 0.458349 55.845 1.37379e-07 
29 1 0.250013 0.0714326 0.458377 55.845 5.50964e-08 
81 1 0.142842 0.107203 0.374929 55.845 2.89926e-07 
91 1 0.142854 0.0357683 0.375042 55.845 1.0559e-08 
92 1 0.142831 0.0714076 0.416828 55.845 -1.37721e-07 
93 1 0.178592 0.071467 0.375118 55.845 2.2547e-07 
94 1 0.178538 0.107182 0.416927 55.845 1.95173e-07 
95 1 0.214247 0.107126 0.375001 55.845 3.95355e-08 
102 1 0.142851 4.15097e-05 0.416885 55.845 -1.10355e-07 
103 1 0.178529 -4.91148e-06 0.375078 55.845 2.99463e-07 
104 1 0.178586 0.0357298 0.416869 55.845 -3.85095e-08 
105 1 0.2143 0.0356997 0.374968 55.845 2.17571e-07 
106 1 0.214242 0.0714353 0.416891 55.845 5.51865e-08 
107 1 0.249979 0.0714163 0.375044 55.845 1.1322e-07 
108 1 0.250054 0.107227 0.416928 55.845 -1.11088e-07 
118 1 0.214322 2.70857e-05 0.416839 55.845 1.48892e-07 
120 1 0.249998 0.035676 0.416861 55.845 -2.65394e-07 
183 1 0.142844 0.107194 0.291118 55.845 4.56358e-07 
193 1 0.142927 0.0356866 0.291169 55.845 4.08352e-07 
194 1 0.142778 0.0714507 0.332972 55.845 -3.36924e-07 
195 1 0.178545 0.0714788 0.291047 55.845 4.34867e-07 
196 1 0.178502 0.10715 0.333084 55.845 -2.45087e-07 
197 1 0.214266 0.107181 0.291165 55.845 3.41671e-07 
204 1 0.142854 1.54391e-05 0.333032 55.845 -3.75112e-07 
205 1 0.178587 -3.30363e-05 0.291117 55.845 3.17099e-07 
206 1 0.178602 0.035747 0.333037 55.845 -1.86023e-07 
207 1 0.214238 0.0356498 0.291039 55.845 2.5754e-07 
208 1 0.214293 0.071491 0.333072 55.845 -1.50619e-07 
209 1 0.249937 0.0714064 0.291153 55.845 3.95854e-07 
210 1 0.249941 0.107218 0.333201 55.845 -3.15293e-07 
220 1 0.214233 -8.04562e-07 0.333095 55.845 -3.6257e-07 
222 1 0.249958 0.0357461 0.333015 55.845 -3.48697e-08 
296 1 0.142818 0.0713991 0.249598 55.845 6.70899e-07 
298 1 0.178617 0.107136 0.249646 55.845 2.17041e-07 
306 1 0.142799 -6.08078e-05 0.249608 55.845 2.65651e-07 
308 1 0.178528 0.035679 0.249639 55.845 3.15311e-07 
310 1 0.214221 0.0713656 0.249602 55.845 3.58736e-07 
312 1 0.24996 0.107149 0.249642 55.845 3.70034e-07 
322 1 0.214256 2.04923e-06 0.249627 55.845 1.08609e-07 
324 1 0.249952 0.035703 0.249499 55.845 2.84907e-07 
30 1 0.285754 0.107132 0.458311 55.845 -1.58228e-07 
35 1 0.250028 9.89881e-06 0.458344 55.845 2.90528e-08 
36 1 0.285688 0.0356692 0.458395 55.845 -1.05977e-07 
37 1 0.321359 0.0714082 0.458299 55.845 4.69048e-07 
38 1 0.357177 0.107126 0.458375 55.845 -2.49188e-08 
42 1 0.321422 2.64654e-05 0.458319 55.845 4.22198e-08 
43 1 0.357146 0.035731 0.458332 55.845 -3.10779e-08 
109 1 0.285709 0.107126 0.37497 55.845 1.34279e-08 
119 1 0.249965 -6.13132e-05 0.374992 55.845 -2.23446e-07 
121 1 0.285725 0.0357547 0.374978 55.845 4.34942e-07 
122 1 0.285653 0.0714582 0.41684 55.845 2.31399e-07 
123 1 0.321385 0.0713966 0.375035 55.845 1.33924e-07 
124 1 0.321412 0.107178 0.416837 55.845 -1.68316e-07 
125 1 0.357142 0.107111 0.375014 55.845 -3.44506e-07 
133 1 0.321372 4.18124e-05 0.375031 55.845 -1.59016e-07 
134 1 0.321395 0.0357602 0.416949 55.845 5.3338e-08 
135 1 0.357121 0.0357163 0.375011 55.845 1.41629e-07 
136 1 0.357102 0.0714839 0.416847 55.845 -7.8443e-08 
211 1 0.285712 0.107144 0.291199 55.845 3.05257e-07 
221 1 0.249989 2.69603e-05 0.291072 55.845 2.40543e-07 
223 1 0.285726 0.0356613 0.291134 55.845 2.37177e-07 
224 1 0.285745 0.0714805 0.332986 55.845 -4.1671e-09 
225 1 0.321506 0.0713623 0.291001 55.845 2.84554e-07 
226 1 0.321405 0.10714 0.333112 55.845 -5.21623e-07 
227 1 0.357224 0.107123 0.290995 55.845 1.82037e-07 
235 1 0.321371 3.25218e-05 0.290976 55.845 3.05106e-07 
236 1 0.321417 0.0356968 0.333053 55.845 -1.06447e-07 
237 1 0.357173 0.035683 0.291043 55.845 4.30832e-07 
238 1 0.357148 0.0714062 0.333068 55.845 -4.77046e-07 
326 1 0.285629 0.0714801 0.249722 55.845 2.0758e-07 
328 1 0.321385 0.107208 0.249729 55.845 4.69874e-07 
338 1 0.321459 0.035757 0.249571 55.845 2.02328e-07 
340 1 0.357241 0.0714618 0.249579 55.845 3.49265e-07 
44 1 0.392791 0.0714457 0.45826 55.845 9.2339e-08 
45 1 0.428558 0.107155 0.458325 55.845 2.4578e-07 
47 1 0.392966 1.9436e-06 0.458383 55.845 -2.30242e-08 
48 1 0.428553 0.0357024 0.458466 55.845 1.57746e-07 
49 1 0.464314 0.0713915 0.458429 55.845 -2.48489e-07 
50 1 0.46434 5.9326e-05 0.458476 55.845 1.68601e-07 
137 1 0.39284 0.0714064 0.375014 55.845 2.85419e-07 
138 1 0.392935 0.107123 0.416816 55.845 -2.70282e-07 
139 1 0.428596 0.107202 0.374967 55.845 2.07468e-07 
144 1 0.392864 4.34326e-05 0.375023 55.845 1.31086e-07 
145 1 0.392833 0.0357407 0.41683 55.845 -3.15851e-08 
146 1 0.42863 0.0358123 0.375122 55.845 4.60693e-07 
147 1 0.428578 0.0714177 0.417006 55.845 2.68265e-07 
148 1 0.464335 0.0714526 0.375046 55.845 -4.23463e-08 
149 1 0.464299 0.107141 0.416948 55.845 -2.05795e-07 
150 1 0.428607 3.12411e-05 0.416965 55.845 -1.62938e-07 
151 1 0.464293 7.46602e-05 0.375145 55.845 2.9544e-08 
152 1 0.464308 0.0357602 0.416935 55.845 -1.52843e-08 
239 1 0.392908 0.0714293 0.291196 55.845 3.64686e-07 
240 1 0.39292 0.107101 0.333194 55.845 -3.56833e-07 
241 1 0.428579 0.10712 0.29113 55.845 5.42346e-08 
246 1 0.392848 1.27661e-05 0.291056 55.845 2.47242e-07 
247 1 0.392877 0.0356673 0.333096 55.845 -1.88633e-07 
248 1 0.42861 0.0357038 0.291124 55.845 4.20329e-07 
249 1 0.428609 0.0714585 0.333186 55.845 -2.47202e-07 
250 1 0.464325 0.0714098 0.29126 55.845 4.87179e-07 
251 1 0.46428 0.107176 0.333066 55.845 -3.72449e-07 
252 1 0.428558 9.67977e-05 0.333014 55.845 -4.30358e-07 
253 1 0.464216 -1.08943e-05 0.291096 55.845 4.07458e-07 
254 1 0.464288 0.0356783 0.333173 55.845 -3.22955e-07 
342 1 0.392952 0.107134 0.24964 55.845 3.63979e-07 
349 1 0.392888 0.0357558 0.249745 55.845 9.33301e-08 
351 1 0.428584 0.0713774 0.249701 55.845 4.43117e-07 
353 1 0.464299 0.107026 0.249692 55.845 2.86148e-07 
354 1 0.428525 2.76113e-05 0.249596 55.845 3.25746e-07 
356 1 0.4643 0.0357378 0.249747 55.845 3.68269e-07 
1 1 3.51175e-05 0.178573 0.458354 55.845 2.44219e-07 
2 1 0.035762 0.214336 0.458339 55.845 1.28874e-07 
4 1 0.0358266 0.142919 0.45841 55.845 -8.86841e-08 
5 1 0.0714759 0.178534 0.458401 55.845 -9.367e-09 
6 1 0.107133 0.214311 0.458295 55.845 1.80975e-07 
10 1 0.10716 0.142868 0.45829 55.845 -1.25137e-07 
51 1 -1.21835e-05 0.178607 0.375002 55.845 1.26748e-07 
52 1 1.41111e-05 0.21433 0.416862 55.845 2.43272e-07 
53 1 0.0357865 0.214289 0.375019 55.845 9.69512e-08 
54 1 0.0357552 0.250083 0.416884 55.845 -2.60034e-07 
56 1 4.08215e-05 0.142905 0.416807 55.845 -8.53021e-08 
57 1 0.0357883 0.142906 0.374855 55.845 2.93154e-08 
58 1 0.0357322 0.178571 0.41686 55.845 -2.19585e-07 
59 1 0.071401 0.178661 0.375036 55.845 -3.94148e-08 
60 1 0.0715143 0.214264 0.4169 55.845 1.07213e-07 
61 1 0.107193 0.21433 0.374982 55.845 2.90255e-07 
62 1 0.107176 0.250027 0.416801 55.845 -6.51209e-08 
68 1 0.0714264 0.142841 0.416787 55.845 -2.25579e-07 
69 1 0.107105 0.142851 0.374961 55.845 2.48221e-08 
70 1 0.107175 0.178553 0.41694 55.845 -1.73191e-07 
153 1 1.1515e-05 0.1787 0.291049 55.845 3.65688e-07 
154 1 1.02818e-05 0.214254 0.333148 55.845 -9.4229e-08 
155 1 0.0357135 0.214352 0.291004 55.845 4.37491e-07 
156 1 0.0357775 0.250026 0.333045 55.845 -4.37325e-07 
158 1 5.31373e-06 0.14291 0.332966 55.845 -3.09826e-07 
159 1 0.035732 0.142966 0.291028 55.845 2.92636e-07 
160 1 0.0357178 0.178658 0.333047 55.845 -3.05494e-07 
161 1 0.0714134 0.178654 0.29106 55.845 3.29107e-07 
162 1 0.071443 0.214326 0.333033 55.845 -1.87792e-07 
163 1 0.107183 0.214293 0.291096 55.845 4.74864e-07 
164 1 0.107192 0.249998 0.333076 55.845 -2.64229e-07 
170 1 0.0714386 0.142925 0.333028 55.845 -4.41958e-07 
171 1 0.107214 0.142885 0.291197 55.845 1.40019e-07 
172 1 0.10712 0.178595 0.332968 55.845 -4.63518e-07 
256 1 5.25626e-06 0.214303 0.249577 55.845 -1.00114e-07 
258 1 0.0357494 0.250022 0.249679 55.845 2.74297e-07 
260 1 -1.19958e-05 0.142967 0.249631 55.845 3.3568e-07 
262 1 0.0356555 0.178531 0.249643 55.845 3.234e-07 
264 1 0.0713839 0.214306 0.249641 55.845 2.6355e-07 
266 1 0.107064 0.249953 0.249611 55.845 2.24854e-07 
272 1 0.0714444 0.142848 0.249531 55.845 9.38106e-08 
274 1 0.107107 0.178582 0.2496 55.845 2.49255e-07 
11 1 0.142858 0.178591 0.458387 55.845 -1.24071e-09 
12 1 0.178551 0.214303 0.458425 55.845 -1.86221e-07 
17 1 0.178572 0.142844 0.45822 55.845 1.70496e-07 
18 1 0.214293 0.178618 0.458279 55.845 -3.57867e-08 
19 1 0.25002 0.214261 0.458336 55.845 -2.1572e-07 
24 1 0.250049 0.142823 0.458321 55.845 -1.53989e-07 
71 1 0.142842 0.178519 0.37503 55.845 -3.07763e-08 
72 1 0.142812 0.214286 0.416834 55.845 7.49338e-08 
73 1 0.178557 0.214266 0.374988 55.845 1.74519e-07 
82 1 0.142902 0.142858 0.416804 55.845 1.15226e-07 
83 1 0.178629 0.142835 0.374907 55.845 3.11998e-07 
84 1 0.178625 0.17858 0.416806 55.845 8.01748e-08 
85 1 0.214259 0.17858 0.374859 55.845 -2.20808e-07 
86 1 0.214303 0.214308 0.41678 55.845 -2.14811e-08 
87 1 0.249995 0.21427 0.374987 55.845 1.51443e-08 
96 1 0.214363 0.142883 0.416845 55.845 2.31331e-08 
97 1 0.250022 0.142896 0.374957 55.845 1.41435e-08 
98 1 0.249984 0.178624 0.416617 55.845 1.29106e-07 
173 1 0.142843 0.178545 0.291145 55.845 2.59789e-07 
174 1 0.142887 0.214283 0.333103 55.845 -3.67458e-07 
175 1 0.178616 0.214279 0.290971 55.845 4.88332e-07 
184 1 0.142876 0.142916 0.33314 55.845 -4.80028e-07 
185 1 0.178631 0.142852 0.291106 55.845 -5.80643e-08 
186 1 0.178594 0.178586 0.333068 55.845 -2.40518e-07 
187 1 0.214199 0.178618 0.290888 55.845 4.2604e-07 
188 1 0.21426 0.214318 0.333055 55.845 -2.83511e-07 
189 1 0.249895 0.214294 0.29106 55.845 4.33601e-07 
198 1 0.214313 0.142889 0.333071 55.845 -3.60376e-07 
199 1 0.249993 0.142913 0.291021 55.845 3.99814e-07 
200 1 0.24994 0.178512 0.333031 55.845 -6.46242e-08 
276 1 0.14289 0.214308 0.249596 55.845 3.6239e-07 
286 1 0.142767 0.14289 0.24971 55.845 6.01944e-08 
288 1 0.178577 0.178597 0.249482 55.845 1.47855e-07 
290 1 0.214252 0.214399 0.249513 55.845 2.6314e-07 
300 1 0.214251 0.142874 0.249575 55.845 3.45498e-07 
302 1 0.249987 0.178648 0.249553 55.845 2.84821e-07 
25 1 0.28565 0.178471 0.458246 55.845 2.03954e-07 
26 1 0.3214 0.21427 0.458383 55.845 1.75005e-07 
31 1 0.3214 0.142902 0.45839 55.845 2.79563e-08 
32 1 0.357141 0.178615 0.458502 55.845 1.41195e-07 
99 1 0.285744 0.178522 0.374849 55.845 2.94237e-07 
100 1 0.285741 0.214243 0.416869 55.845 1.72717e-07 
101 1 0.321466 0.214323 0.374947 55.845 1.46096e-07 
110 1 0.285758 0.142871 0.416889 55.845 1.94783e-07 
111 1 0.321437 0.142805 0.374936 55.845 1.19533e-07 
112 1 0.321469 0.178552 0.416776 55.845 2.44504e-07 
113 1 0.357207 0.17853 0.37498 55.845 7.37983e-08 
114 1 0.357147 0.214321 0.416914 55.845 7.13657e-08 
126 1 0.357107 0.142881 0.416955 55.845 -4.43903e-07 
201 1 0.285681 0.178609 0.29114 55.845 3.16253e-07 
202 1 0.285715 0.214335 0.333033 55.845 -3.26573e-08 
203 1 0.321462 0.214285 0.291084 55.845 3.22005e-07 
212 1 0.285674 0.142817 0.333046 55.845 -1.59148e-07 
213 1 0.321494 0.142883 0.29108 55.845 3.94472e-07 
214 1 0.321433 0.178576 0.3331 55.845 1.89909e-08 
215 1 0.357221 0.178607 0.291249 55.845 3.35219e-07 
216 1 0.357128 0.21435 0.33312 55.845 -4.16561e-07 