ITEM: TIMESTEP
7500
ITEM: NUMBER OF ATOMS
5880
ITEM: BOX BOUNDS pp pp ff
-27.8856 27.8856
-27.8856 27.8856
0 34.092
ITEM: ATOMS id type xs ys zs mass q 
259 1 -2.36762e-05 0.107107 0.210986 55.845 -6.58644e-07 
267 1 -5.4962e-05 0.0357743 0.211185 55.845 -5.88179e-07 
269 1 0.0356797 0.071428 0.210943 55.845 -6.12027e-07 
271 1 0.0713157 0.107091 0.210928 55.845 -8.3376e-07 
279 1 0.0357172 -0.000136218 0.211116 55.845 -6.60237e-07 
281 1 0.0714268 0.0356951 0.210986 55.845 -6.30188e-07 
283 1 0.107104 0.0713686 0.210975 55.845 -8.65871e-07 
293 1 0.107162 -4.32549e-05 0.210968 55.845 -6.1002e-07 
361 1 -2.66755e-05 0.107071 0.127767 55.845 2.13902e-08 
369 1 1.93389e-05 0.035542 0.127785 55.845 -1.83179e-09 
370 1 1.7217e-05 0.071362 0.168965 55.845 7.36081e-08 
371 1 0.0356428 0.0713439 0.127596 55.845 2.18774e-08 
372 1 0.0357328 0.107062 0.168705 55.845 1.50003e-07 
373 1 0.0713443 0.107034 0.127441 55.845 5.75909e-08 
380 1 -1.25052e-05 -0.000108621 0.169012 55.845 1.09452e-07 
381 1 0.0357229 -0.000106286 0.127668 55.845 1.53439e-07 
382 1 0.0356583 0.0356588 0.169101 55.845 1.71289e-07 
383 1 0.0714326 0.0355902 0.127742 55.845 8.35389e-08 
384 1 0.0714512 0.0714018 0.168895 55.845 1.40038e-07 
385 1 0.107153 0.0713411 0.127506 55.845 7.62344e-08 
386 1 0.107032 0.107106 0.168687 55.845 8.1828e-08 
394 1 0.0714235 -8.21916e-05 0.169034 55.845 9.05294e-08 
395 1 0.107054 -1.98254e-05 0.127649 55.845 1.36966e-07 
396 1 0.10714 0.03566 0.168995 55.845 1.20371e-07 
463 1 0 0.107143 0.0416667 55.845 -3.30247e-07 
471 1 0 0.0357143 0.0416667 55.845 -2.27522e-07 
472 1 1.50899e-05 0.071309 0.085216 55.845 -1.56347e-07 
473 1 0.0357143 0.0714286 0.0416667 55.845 -3.06603e-07 
474 1 0.0355184 0.107034 0.0851471 55.845 5.43204e-08 
475 1 0.0714286 0.107143 0.0416667 55.845 -7.92054e-08 
482 1 -0.000100704 -9.01533e-05 0.0851229 55.845 2.22245e-07 
483 1 0.0357143 0 0.0416667 55.845 -2.2952e-09 
484 1 0.0357049 0.0356044 0.085219 55.845 5.37884e-08 
485 1 0.0714286 0.0357143 0.0416667 55.845 -1.35876e-07 
486 1 0.0714178 0.0714041 0.0851163 55.845 2.31896e-07 
487 1 0.107143 0.0714286 0.0416667 55.845 1.77041e-08 
488 1 0.107181 0.107068 0.0851166 55.845 2.09977e-07 
496 1 0.0714726 -4.48906e-05 0.0850622 55.845 6.07996e-08 
497 1 0.107143 0 0.0416667 55.845 -1.80594e-07 
498 1 0.107068 0.0356787 0.0853025 55.845 2.2954e-07 
567 1 0 0.0714286 0 55.845 -3.83176e-07 
568 1 0.0357143 0.107143 0 55.845 -2.04307e-07 
572 1 0 0 0 55.845 1.36054e-07 
573 1 0.0357143 0.0357143 0 55.845 -1.65268e-07 
574 1 0.0714286 0.0714286 0 55.845 -4.50829e-08 
575 1 0.107143 0.107143 0 55.845 5.62451e-08 
579 1 0.0714286 0 0 55.845 -1.38631e-07 
580 1 0.107143 0.0357143 0 55.845 -2.85327e-08 
285 1 0.142829 0.107178 0.21083 55.845 -7.43975e-07 
295 1 0.142877 0.0357436 0.210965 55.845 -7.20866e-07 
297 1 0.178596 0.0714091 0.210942 55.845 -6.79754e-07 
299 1 0.214253 0.107204 0.211051 55.845 -6.1982e-07 
307 1 0.178607 -6.96094e-05 0.210917 55.845 -6.00788e-07 
309 1 0.214403 0.0356024 0.210915 55.845 -6.55824e-07 
311 1 0.249903 0.0714974 0.210837 55.845 -7.04502e-07 
387 1 0.142849 0.107118 0.127675 55.845 7.9643e-08 
397 1 0.142897 0.0358023 0.127738 55.845 2.0294e-07 
398 1 0.14284 0.0714778 0.168869 55.845 3.29138e-08 
399 1 0.178564 0.0714207 0.127486 55.845 1.92105e-07 
400 1 0.178485 0.107151 0.168917 55.845 -9.91418e-08 
401 1 0.214269 0.107158 0.12767 55.845 2.2998e-07 
408 1 0.142779 2.62852e-07 0.168854 55.845 1.34644e-09 
409 1 0.17852 -7.77801e-06 0.12744 55.845 3.94299e-07 
410 1 0.178615 0.0357004 0.168818 55.845 -8.12372e-09 
411 1 0.214225 0.0357549 0.127513 55.845 2.85245e-07 
412 1 0.214185 0.071379 0.168747 55.845 -1.24552e-07 
413 1 0.249995 0.0714159 0.127705 55.845 1.19386e-07 
414 1 0.249897 0.107224 0.168698 55.845 -1.39973e-07 
424 1 0.214348 1.77366e-05 0.168764 55.845 -7.05521e-08 
426 1 0.249928 0.035716 0.168804 55.845 -1.05397e-07 
489 1 0.142857 0.107143 0.0416667 55.845 2.54891e-08 
499 1 0.142857 0.0357143 0.0416667 55.845 5.98067e-08 
500 1 0.142866 0.0714454 0.0850849 55.845 3.26151e-07 
501 1 0.178571 0.0714286 0.0416667 55.845 9.58602e-08 
502 1 0.178565 0.107153 0.0852144 55.845 9.22642e-08 
503 1 0.214286 0.107143 0.0416667 55.845 1.47246e-07 
510 1 0.142786 1.55249e-05 0.0850869 55.845 6.99847e-08 
511 1 0.178571 0 0.0416667 55.845 7.31226e-08 
512 1 0.178532 0.035718 0.0852375 55.845 2.20074e-07 
513 1 0.214286 0.0357143 0.0416667 55.845 1.01833e-07 
514 1 0.214247 0.071523 0.0850947 55.845 8.73914e-08 
515 1 0.25 0.0714286 0.0416667 55.845 8.85485e-09 
516 1 0.25 0.107242 0.0851245 55.845 1.0546e-07 
526 1 0.214291 1.2379e-05 0.0851568 55.845 1.42307e-07 
528 1 0.249946 0.0356816 0.0853129 55.845 5.66952e-08 
581 1 0.142857 0.0714286 0 55.845 1.34461e-07 
582 1 0.178571 0.107143 0 55.845 8.91336e-08 
586 1 0.142857 0 0 55.845 -1.90018e-07 
587 1 0.178571 0.0357143 0 55.845 3.11758e-08 
588 1 0.214286 0.0714286 0 55.845 2.40416e-08 
589 1 0.25 0.107143 0 55.845 1.08974e-07 
594 1 0.214286 0 0 55.845 -6.20408e-08 
595 1 0.25 0.0357143 0 55.845 -9.14702e-08 
313 1 0.285698 0.107213 0.21088 55.845 -7.97495e-07 
323 1 0.249983 -4.89199e-05 0.210923 55.845 -6.7315e-07 
325 1 0.285702 0.035726 0.211065 55.845 -7.22728e-07 
327 1 0.321387 0.0715087 0.210863 55.845 -7.50084e-07 
329 1 0.357162 0.107174 0.21099 55.845 -7.26982e-07 
337 1 0.321461 0.000141939 0.210817 55.845 -7.05935e-07 
339 1 0.357124 0.0357989 0.211032 55.845 -6.99529e-07 
415 1 0.285783 0.107162 0.127383 55.845 1.95172e-07 
425 1 0.250002 -0.000112939 0.127512 55.845 3.60579e-07 
427 1 0.285718 0.0356386 0.127537 55.845 1.66603e-07 
428 1 0.285773 0.071527 0.168715 55.845 -3.25508e-08 
429 1 0.321435 0.0714874 0.127612 55.845 1.3868e-07 
430 1 0.321364 0.10718 0.168765 55.845 1.20175e-07 
431 1 0.357214 0.107177 0.127688 55.845 1.57039e-07 
439 1 0.321484 -8.27209e-06 0.127681 55.845 2.04919e-07 
440 1 0.321389 0.0357747 0.16873 55.845 8.92931e-08 
441 1 0.357097 0.0357906 0.127587 55.845 1.78349e-07 
442 1 0.357164 0.0715004 0.168889 55.845 2.21803e-07 
517 1 0.285714 0.107143 0.0416667 55.845 1.27703e-07 
527 1 0.25 0 0.0416667 55.845 1.46972e-07 
529 1 0.285714 0.0357143 0.0416667 55.845 -2.82674e-08 
530 1 0.285678 0.0713743 0.0851318 55.845 8.10005e-08 
531 1 0.321429 0.0714286 0.0416667 55.845 2.63475e-09 
532 1 0.321405 0.107101 0.0851414 55.845 2.33329e-07 
533 1 0.357143 0.107143 0.0416667 55.845 -1.69862e-08 
603 1 0.357143 0.0714286 0 55.845 1.76602e-08 
541 1 0.321429 0 0.0416667 55.845 5.80081e-08 
542 1 0.321468 0.0357355 0.0849792 55.845 1.64701e-07 
543 1 0.357143 0.0357143 0.0416667 55.845 5.54585e-08 
544 1 0.35712 0.071506 0.0851419 55.845 2.45208e-07 
602 1 0.321429 0.0357143 0 55.845 -4.82838e-08 
596 1 0.285714 0.0714286 0 55.845 -3.47645e-08 
597 1 0.321429 0.107143 0 55.845 1.46998e-08 
612 1 0.464286 0.0357143 0 55.845 -1.3439e-07 
611 1 0.428571 0 0 55.845 -7.06752e-08 
610 1 0.464286 0.107143 0 55.845 -1.62375e-07 
609 1 0.428571 0.0714286 0 55.845 -4.78097e-08 
608 1 0.392857 0.0357143 0 55.845 -5.25363e-09 
341 1 0.392844 0.0714585 0.211016 55.845 -7.74564e-07 
343 1 0.428465 0.107128 0.211141 55.845 -7.58715e-07 
348 1 0.392907 6.24364e-06 0.210875 55.845 -6.44207e-07 
350 1 0.428634 0.0356796 0.211048 55.845 -6.97683e-07 
352 1 0.464339 0.0715166 0.211074 55.845 -7.04141e-07 
355 1 0.464321 1.24395e-05 0.210922 55.845 -6.74677e-07 
443 1 0.392836 0.0714789 0.127708 55.845 2.17819e-07 
444 1 0.392918 0.10712 0.168831 55.845 9.60631e-08 
445 1 0.428565 0.107288 0.127604 55.845 2.06926e-07 
604 1 0.392857 0.107143 0 55.845 -1.3665e-07 
450 1 0.392869 2.26761e-05 0.127528 55.845 9.60288e-08 
451 1 0.392809 0.0358146 0.168813 55.845 1.1207e-07 
452 1 0.428549 0.0357637 0.127614 55.845 9.10485e-08 
453 1 0.428561 0.0713976 0.168989 55.845 4.12987e-08 
454 1 0.464251 0.0714486 0.127582 55.845 1.71163e-07 
455 1 0.464204 0.107148 0.16901 55.845 -3.24479e-08 
456 1 0.428645 3.01429e-07 0.168709 55.845 -4.54822e-09 
457 1 0.46425 -2.50717e-05 0.127464 55.845 3.91874e-08 
458 1 0.464284 0.0357199 0.168809 55.845 -8.08726e-08 
545 1 0.392857 0.0714286 0.0416667 55.845 8.20967e-08 
546 1 0.392874 0.107169 0.0851533 55.845 1.32459e-07 
547 1 0.428571 0.107143 0.0416667 55.845 5.29734e-09 
552 1 0.392857 0 0.0416667 55.845 -2.89287e-08 
553 1 0.392787 0.0357342 0.0852228 55.845 1.68756e-07 
554 1 0.428571 0.0357143 0.0416667 55.845 8.82719e-09 
555 1 0.428606 0.071512 0.0851242 55.845 7.51427e-08 
556 1 0.464286 0.0714286 0.0416667 55.845 -3.69602e-08 
557 1 0.464274 0.107093 0.0852189 55.845 2.94377e-08 
558 1 0.428535 1.91077e-05 0.0851543 55.845 -8.26729e-08 
559 1 0.464286 0 0.0416667 55.845 -5.66738e-08 
560 1 0.464202 0.0357988 0.0852823 55.845 -7.87621e-08 
255 1 -4.25337e-06 0.178581 0.211033 55.845 -8.27409e-07 
257 1 0.0356421 0.214258 0.21082 55.845 -6.75207e-07 
261 1 0.0356659 0.142821 0.21072 55.845 -7.91043e-07 
263 1 0.0714703 0.178617 0.21104 55.845 -6.97112e-07 
265 1 0.107137 0.214257 0.21079 55.845 -6.12547e-07 
273 1 0.107118 0.14275 0.210922 55.845 -7.21898e-07 
357 1 3.51691e-06 0.17857 0.127446 55.845 3.42195e-07 
358 1 -3.03951e-05 0.214231 0.16886 55.845 5.37305e-08 
359 1 0.0356657 0.214334 0.127527 55.845 2.22036e-07 
360 1 0.0357136 0.250048 0.168781 55.845 -1.01158e-07 
362 1 -6.2289e-05 0.142848 0.168774 55.845 1.3934e-07 
363 1 0.0356562 0.142916 0.127525 55.845 1.92064e-07 
364 1 0.0356918 0.1786 0.168953 55.845 9.42064e-08 
365 1 0.0713577 0.178624 0.127498 55.845 1.09461e-07 
366 1 0.0714019 0.214252 0.16871 55.845 -8.91246e-08 
367 1 0.107169 0.214199 0.127566 55.845 8.64492e-08 
368 1 0.107097 0.250026 0.168849 55.845 -1.64421e-07 
374 1 0.0713841 0.142862 0.168775 55.845 8.74014e-08 
375 1 0.107101 0.142831 0.127549 55.845 -5.05205e-09 
376 1 0.10718 0.178442 0.168873 55.845 -3.06229e-08 
459 1 0 0.178571 0.0416667 55.845 1.37088e-07 
460 1 -6.40341e-05 0.214287 0.0850774 55.845 2.63517e-07 
461 1 0.0357143 0.214286 0.0416667 55.845 -7.19154e-09 
462 1 0.0357575 0.250093 0.0851281 55.845 5.34279e-08 
464 1 -4.92591e-06 0.142846 0.0851741 55.845 1.45771e-07 
465 1 0.0357143 0.142857 0.0416667 55.845 1.38981e-08 
466 1 0.0356481 0.178637 0.0850663 55.845 2.28642e-07 
467 1 0.0714286 0.178571 0.0416667 55.845 -1.15111e-07 
468 1 0.0713982 0.214263 0.0849853 55.845 4.92367e-08 
469 1 0.107143 0.214286 0.0416667 55.845 -8.91987e-08 
470 1 0.107098 0.249951 0.0852277 55.845 1.52312e-07 
476 1 0.0714375 0.142823 0.0852019 55.845 1.53104e-07 
477 1 0.107143 0.142857 0.0416667 55.845 -1.07436e-07 
478 1 0.107154 0.178629 0.085192 55.845 -1.85912e-08 
561 1 0 0.214286 0 55.845 -3.77484e-08 
562 1 0.0357143 0.25 0 55.845 -1.38761e-07 
563 1 0 0.142857 0 55.845 -1.6605e-07 
564 1 0.0357143 0.178571 0 55.845 -2.244e-08 
565 1 0.0714286 0.214286 0 55.845 -1.0082e-07 
566 1 0.107143 0.25 0 55.845 7.22378e-08 
569 1 0.0714286 0.142857 0 55.845 -6.13003e-08 
570 1 0.107143 0.178571 0 55.845 -1.00836e-07 
275 1 0.142841 0.17849 0.211003 55.845 -4.31042e-07 
277 1 0.178586 0.214198 0.21096 55.845 -4.25421e-07 
287 1 0.178611 0.142942 0.210918 55.845 -4.23538e-07 
289 1 0.214291 0.178581 0.211041 55.845 -3.98015e-07 
291 1 0.250024 0.214261 0.211002 55.845 -4.81186e-07 
301 1 0.25001 0.142824 0.210977 55.845 -6.59486e-07 
377 1 0.142859 0.178476 0.127474 55.845 1.47803e-07 
378 1 0.142847 0.214267 0.168957 55.845 -1.0091e-07 
379 1 0.178528 0.21425 0.127508 55.845 3.26103e-07 
388 1 0.142856 0.142803 0.168886 55.845 -3.71506e-08 
389 1 0.17852 0.142923 0.127654 55.845 2.36196e-07 
390 1 0.17851 0.17858 0.168849 55.845 -1.21142e-07 
391 1 0.214253 0.178564 0.12765 55.845 3.80285e-07 
392 1 0.214283 0.214283 0.168907 55.845 -1.46694e-07 
393 1 0.249997 0.214284 0.127462 55.845 2.03919e-07 
402 1 0.214295 0.14289 0.16866 55.845 -1.55857e-07 
403 1 0.250003 0.14289 0.127496 55.845 3.28247e-07 
404 1 0.24997 0.178507 0.168747 55.845 -1.67298e-07 
479 1 0.142857 0.178571 0.0416667 55.845 -6.6407e-08 
480 1 0.142886 0.214264 0.0851825 55.845 8.99703e-08 
481 1 0.178571 0.214286 0.0416667 55.845 1.57512e-07 
490 1 0.142856 0.142874 0.0851566 55.845 2.51598e-09 
491 1 0.178571 0.142857 0.0416667 55.845 9.59387e-08 
492 1 0.178538 0.178558 0.0849653 55.845 5.15307e-09 
493 1 0.214286 0.178571 0.0416667 55.845 2.42573e-07 
494 1 0.214281 0.214324 0.0851818 55.845 -5.32534e-08 
495 1 0.25 0.214286 0.0416667 55.845 -3.82154e-09 
504 1 0.214272 0.142815 0.0850927 55.845 6.85083e-08 
505 1 0.25 0.142857 0.0416667 55.845 3.35088e-07 
506 1 0.250004 0.178566 0.0851318 55.845 8.14242e-08 
571 1 0.142857 0.214286 0 55.845 8.26604e-08 
576 1 0.142857 0.142857 0 55.845 -4.03789e-08 
577 1 0.178571 0.178571 0 55.845 9.3988e-08 
578 1 0.214286 0.214286 0 55.845 4.97078e-08 
583 1 0.214286 0.142857 0 55.845 1.64823e-07 
584 1 0.25 0.178571 0 55.845 1.74517e-07 
303 1 0.285678 0.17859 0.210882 55.845 -6.47195e-07 
305 1 0.32151 0.214339 0.210796 55.845 -6.32194e-07 
315 1 0.321437 0.142987 0.210795 55.845 -7.30751e-07 
317 1 0.357059 0.178639 0.210615 55.845 -6.78242e-07 
405 1 0.285634 0.178537 0.12755 55.845 3.13022e-07 
406 1 0.285758 0.214241 0.16881 55.845 -1.42142e-07 
407 1 0.321456 0.214372 0.127643 55.845 2.42715e-07 
416 1 0.285743 0.142824 0.16872 55.845 -4.99038e-08 
417 1 0.321431 0.142912 0.127662 55.845 2.13822e-07 
418 1 0.321372 0.178625 0.168829 55.845 -2.12777e-08 
419 1 0.35711 0.178677 0.127419 55.845 2.13319e-07 
420 1 0.357099 0.214349 0.168678 55.845 -9.55514e-08 
432 1 0.357059 0.14286 0.168756 55.845 9.54302e-08 
507 1 0.285714 0.178571 0.0416667 55.845 2.23577e-07 
508 1 0.285709 0.214301 0.0851759 55.845 -8.40402e-08 
509 1 0.321429 0.214286 0.0416667 55.845 9.3015e-08 
518 1 0.285727 0.14292 0.0850641 55.845 2.17981e-07 
519 1 0.321429 0.142857 0.0416667 55.845 1.23975e-07 
520 1 0.321423 0.178669 0.0852066 55.845 1.41546e-07 
521 1 0.357143 0.178571 0.0416667 55.845 -7.15753e-09 
522 1 0.35712 0.21437 0.0851575 55.845 1.6481e-07 
534 1 0.357114 0.14289 0.0851619 55.845 9.4505e-08 
585 1 0.285714 0.214286 0 55.845 -5.34456e-08 
590 1 0.285714 0.142857 0 55.845 1.95427e-07 
591 1 0.321429 0.178571 0 55.845 3.58658e-08 
592 1 0.357143 0.214286 0 55.845 1.51544e-08 
598 1 0.357143 0.142857 0 55.845 -1.35885e-07 
319 1 0.392852 0.214279 0.210969 55.845 -7.7187e-07 
321 1 0.428616 0.249993 0.211049 55.845 -7.73732e-07 
331 1 0.392758 0.142905 0.210828 55.845 -7.18137e-07 
333 1 0.4286 0.178609 0.210967 55.845 -7.49774e-07 
335 1 0.464338 0.214154 0.21096 55.845 -6.81201e-07 
345 1 0.464267 0.142762 0.210979 55.845 -7.72487e-07 
606 1 0.464286 0.178571 0 55.845 -2.71646e-07 
421 1 0.392873 0.214326 0.127735 55.845 2.83975e-07 
422 1 0.39284 0.249997 0.168833 55.845 -1.18689e-07 
423 1 0.428502 0.250044 0.127674 55.845 3.16384e-07 
433 1 0.392862 0.142916 0.12756 55.845 1.28343e-07 
434 1 0.392881 0.178615 0.168713 55.845 -1.16213e-07 
435 1 0.428645 0.178498 0.127598 55.845 1.93678e-07 
436 1 0.428628 0.214317 0.168933 55.845 -2.18103e-07 
437 1 0.464315 0.214216 0.127456 55.845 2.70138e-07 
605 1 0.428571 0.142857 0 55.845 -2.77547e-07 
446 1 0.428632 0.142922 0.168991 55.845 -8.21167e-08 
447 1 0.464358 0.14283 0.127428 55.845 3.01652e-07 
448 1 0.464239 0.178634 0.168896 55.845 -1.21768e-07 
523 1 0.392857 0.214286 0.0416667 55.845 7.99591e-08 
524 1 0.392882 0.249978 0.0851747 55.845 2.30725e-07 
525 1 0.428571 0.25 0.0416667 55.845 6.78944e-08 
535 1 0.392857 0.142857 0.0416667 55.845 -1.55386e-07 
536 1 0.392874 0.178577 0.0851198 55.845 -7.66579e-08 
537 1 0.428571 0.178571 0.0416667 55.845 -1.21871e-07 
538 1 0.428527 0.214305 0.0852034 55.845 -7.59846e-08 
539 1 0.464286 0.214286 0.0416667 55.845 -8.24723e-08 
548 1 0.428624 0.142884 0.0851747 55.845 -6.27946e-08 
549 1 0.464286 0.142857 0.0416667 55.845 4.81117e-08 
550 1 0.464222 0.1786 0.0852129 55.845 -6.01076e-08 
593 1 0.392857 0.25 0 55.845 9.66339e-08 
599 1 0.392857 0.178571 0 55.845 -2.7255e-07 
600 1 0.428571 0.214286 0 55.845 -2.67161e-07 
3 1 4.02867e-05 0.107127 0.464358 55.845 4.30175e-08 
7 1 -1.76219e-05 0.0357479 0.464363 55.845 2.20231e-07 
8 1 0.0357387 0.0714801 0.464254 55.845 1.60502e-07 
9 1 0.0714624 0.107151 0.464308 55.845 2.64563e-07 
13 1 0.0357333 2.17901e-06 0.464612 55.845 4.44753e-07 
14 1 0.0714344 0.0357031 0.46426 55.845 3.11046e-07 
15 1 0.107134 0.0713391 0.464282 55.845 4.18404e-07 
20 1 0.107068 0.00012605 0.464255 55.845 2.26162e-07 
55 1 3.12402e-05 0.107066 0.379722 55.845 -7.19613e-07 
63 1 -3.7675e-05 0.035716 0.37971 55.845 -6.72462e-07 
64 1 4.05744e-05 0.0714988 0.42261 55.845 2.82027e-08 
65 1 0.0357712 0.0713596 0.379729 55.845 -7.00652e-07 
66 1 0.035729 0.107096 0.422418 55.845 4.8218e-08 
67 1 0.071357 0.107236 0.379703 55.845 -8.00264e-07 
74 1 -2.73169e-05 6.82512e-05 0.422838 55.845 -1.18591e-08 
75 1 0.0357188 8.16141e-05 0.379721 55.845 -6.67114e-07 
76 1 0.0356437 0.035691 0.42284 55.845 -3.47385e-09 
77 1 0.0713826 0.0357291 0.379831 55.845 -6.6472e-07 
78 1 0.071346 0.0714605 0.422615 55.845 -4.30441e-08 
79 1 0.107077 0.0713622 0.379755 55.845 -7.60543e-07 
80 1 0.107174 0.107127 0.42251 55.845 -7.33385e-08 
88 1 0.071319 -4.80622e-05 0.422478 55.845 -4.08909e-08 
89 1 0.107099 1.6752e-05 0.379773 55.845 -6.50559e-07 
90 1 0.107218 0.0357496 0.422597 55.845 -7.02296e-08 
157 1 2.55213e-05 0.107062 0.295533 55.845 2.99609e-07 
165 1 9.12596e-06 0.0357411 0.29575 55.845 3.31668e-07 
166 1 3.16353e-05 0.0714266 0.33747 55.845 7.61261e-07 
167 1 0.0356991 0.0714567 0.29568 55.845 3.5661e-07 
168 1 0.0356665 0.107028 0.337457 55.845 5.87766e-07 
169 1 0.0712678 0.107163 0.295665 55.845 5.41999e-08 
176 1 2.44841e-05 3.83533e-05 0.33768 55.845 2.98006e-07 
177 1 0.0357252 7.17568e-05 0.295751 55.845 2.55163e-07 
178 1 0.0357664 0.0357652 0.337449 55.845 5.35382e-07 
179 1 0.0712812 0.0356633 0.295662 55.845 2.63247e-07 
180 1 0.0714473 0.0714425 0.337505 55.845 3.90069e-07 
181 1 0.10704 0.0713669 0.295513 55.845 3.69863e-08 
182 1 0.1071 0.10711 0.337308 55.845 2.55171e-07 
190 1 0.0713966 4.55903e-05 0.337333 55.845 4.52506e-07 
191 1 0.107143 -9.16517e-05 0.295619 55.845 3.50181e-07 
192 1 0.107015 0.0356842 0.337424 55.845 3.19597e-07 
268 1 0.000104642 0.0714227 0.253433 55.845 7.84644e-07 
270 1 0.035726 0.10722 0.253373 55.845 6.35969e-07 
278 1 6.16983e-05 2.73245e-05 0.253507 55.845 4.69652e-07 
280 1 0.0356905 0.0356701 0.253365 55.845 6.84419e-07 
282 1 0.0713851 0.0714546 0.253418 55.845 4.84179e-07 
284 1 0.107089 0.107064 0.253307 55.845 3.57449e-07 
292 1 0.0714353 -0.000108955 0.253349 55.845 5.58954e-07 
294 1 0.107119 0.0356269 0.253514 55.845 3.78078e-07 
16 1 0.142802 0.107068 0.464329 55.845 4.22632e-07 
21 1 0.142844 0.0357134 0.464275 55.845 4.17243e-07 
22 1 0.17849 0.0713946 0.464333 55.845 4.89361e-07 
23 1 0.214247 0.107129 0.464282 55.845 4.43641e-07 
27 1 0.178558 1.36547e-05 0.464345 55.845 3.0411e-07 
28 1 0.214248 0.0357533 0.464317 55.845 4.02045e-07 
29 1 0.249984 0.0715059 0.464239 55.845 3.19002e-07 
81 1 0.142748 0.107098 0.379507 55.845 -6.25627e-07 
91 1 0.142896 0.0357214 0.37964 55.845 -5.98191e-07 
92 1 0.142863 0.0714219 0.422341 55.845 -7.30863e-08 
93 1 0.178614 0.0713315 0.379479 55.845 -5.02179e-07 
94 1 0.178535 0.107068 0.422494 55.845 -6.0392e-08 
95 1 0.214165 0.107146 0.379564 55.845 -5.79482e-07 
102 1 0.142831 -0.00013843 0.42257 55.845 -1.95788e-08 
103 1 0.178633 1.52557e-05 0.379701 55.845 -5.68002e-07 
104 1 0.178626 0.0356858 0.422326 55.845 2.60125e-08 
105 1 0.214346 0.0356441 0.379467 55.845 -5.07955e-07 
106 1 0.214225 0.0713479 0.422612 55.845 -6.09259e-08 
107 1 0.249954 0.0714577 0.379816 55.845 -6.25918e-07 
108 1 0.249934 0.10716 0.422327 55.845 -1.83755e-07 
118 1 0.214366 4.03337e-05 0.422495 55.845 1.21752e-07 
120 1 0.249998 0.0357327 0.422487 55.845 -3.32156e-08 
183 1 0.142781 0.107104 0.2955 55.845 2.37092e-07 
193 1 0.142802 0.0358123 0.295551 55.845 2.20333e-07 
194 1 0.142714 0.0713434 0.33723 55.845 1.91302e-07 
195 1 0.17856 0.0714792 0.295486 55.845 3.02449e-07 
196 1 0.178476 0.107146 0.337425 55.845 2.11659e-07 
197 1 0.21418 0.107205 0.295567 55.845 3.15629e-07 
204 1 0.142829 -2.23715e-06 0.337397 55.845 4.43903e-07 
205 1 0.178581 -5.64005e-05 0.295564 55.845 2.96484e-07 
206 1 0.17864 0.035715 0.337131 55.845 3.44492e-07 
207 1 0.214296 0.0357648 0.295562 55.845 3.6159e-07 
208 1 0.214235 0.0714194 0.337293 55.845 2.41995e-07 
209 1 0.250011 0.0713426 0.295504 55.845 2.52685e-07 
210 1 0.249976 0.107067 0.337485 55.845 1.84717e-09 
220 1 0.21434 5.46774e-05 0.337251 55.845 3.84087e-07 
222 1 0.250064 0.0357846 0.337402 55.845 3.3377e-07 
296 1 0.142926 0.071347 0.253177 55.845 2.34174e-07 
298 1 0.178481 0.107102 0.25333 55.845 3.02694e-07 
306 1 0.142961 1.82317e-06 0.253417 55.845 4.04288e-07 
308 1 0.17861 0.0356648 0.253212 55.845 2.5939e-07 
310 1 0.214371 0.0715285 0.253242 55.845 2.53203e-07 
312 1 0.250038 0.107173 0.253289 55.845 1.14069e-07 
322 1 0.214258 -3.74428e-05 0.253412 55.845 2.29362e-07 
324 1 0.250059 0.0357544 0.253482 55.845 2.36997e-07 
30 1 0.285708 0.107187 0.464158 55.845 3.49213e-07 
35 1 0.249995 8.80508e-05 0.464383 55.845 3.0462e-07 
36 1 0.285659 0.0358865 0.464254 55.845 2.54122e-07 
37 1 0.321478 0.0714186 0.464303 55.845 3.12092e-07 
38 1 0.357194 0.107124 0.464193 55.845 3.56868e-07 
42 1 0.321385 4.13166e-05 0.464288 55.845 2.94087e-07 
43 1 0.357077 0.0357119 0.4644 55.845 3.87218e-07 
109 1 0.285704 0.107195 0.379912 55.845 -7.7465e-07 
119 1 0.250075 -8.38523e-05 0.37977 55.845 -6.19016e-07 
121 1 0.28566 0.0357453 0.379665 55.845 -6.72681e-07 
122 1 0.285767 0.0715376 0.42254 55.845 -1.69465e-07 
123 1 0.321546 0.0714225 0.379634 55.845 -6.84873e-07 
124 1 0.321474 0.107114 0.422666 55.845 -1.63814e-07 
125 1 0.357204 0.107063 0.379606 55.845 -5.66705e-07 
133 1 0.32141 -3.1528e-05 0.379851 55.845 -6.51301e-07 
134 1 0.321442 0.0357852 0.422523 55.845 -9.84663e-08 
135 1 0.35714 0.0356598 0.379723 55.845 -6.60111e-07 
136 1 0.357167 0.0715077 0.422537 55.845 -1.30532e-07 
211 1 0.285724 0.107233 0.295623 55.845 7.27886e-08 
221 1 0.250007 -6.8025e-05 0.295651 55.845 2.25773e-07 
223 1 0.285706 0.0357017 0.29566 55.845 2.42927e-07 
224 1 0.285743 0.071508 0.337449 55.845 1.5822e-07 
225 1 0.321406 0.0714531 0.295517 55.845 1.75168e-07 
226 1 0.321458 0.107183 0.337385 55.845 1.7943e-07 
227 1 0.35709 0.107129 0.295543 55.845 2.62357e-07 
235 1 0.32144 4.04146e-07 0.295816 55.845 2.10571e-07 
236 1 0.321348 0.0357413 0.337479 55.845 2.65743e-07 
237 1 0.357127 0.0357032 0.29572 55.845 2.15602e-07 
238 1 0.357089 0.0714326 0.337435 55.845 2.10581e-07 
326 1 0.285647 0.0715673 0.253286 55.845 3.04387e-07 
328 1 0.32146 0.107256 0.253182 55.845 3.62041e-07 
338 1 0.321429 0.035764 0.253397 55.845 4.09103e-07 
340 1 0.357111 0.0714234 0.253341 55.845 4.31877e-07 
44 1 0.392868 0.0714963 0.464324 55.845 4.11532e-07 
45 1 0.428638 0.107163 0.464167 55.845 2.80029e-07 
47 1 0.392814 -2.42037e-05 0.464104 55.845 3.5854e-07 
48 1 0.428494 0.0356835 0.464382 55.845 3.54654e-07 
49 1 0.4643 0.0714272 0.464241 55.845 3.02445e-07 
50 1 0.46424 6.91205e-07 0.464275 55.845 3.59492e-07 
137 1 0.392941 0.0714852 0.379685 55.845 -5.95435e-07 
138 1 0.392913 0.107166 0.422582 55.845 -1.20551e-07 
139 1 0.428526 0.107208 0.379706 55.845 -4.80232e-07 
144 1 0.392811 -4.68661e-05 0.379775 55.845 -6.04188e-07 
145 1 0.392883 0.035902 0.422562 55.845 -1.30381e-07 
146 1 0.428578 0.0357348 0.379616 55.845 -5.92528e-07 
147 1 0.428709 0.0715053 0.42247 55.845 -1.59806e-07 
148 1 0.464313 0.0714203 0.379752 55.845 -4.16647e-07 
149 1 0.464303 0.107135 0.42257 55.845 -7.42108e-08 
150 1 0.42855 3.49427e-05 0.422606 55.845 -1.88587e-07 
151 1 0.464251 2.34499e-05 0.379583 55.845 -6.3486e-07 
152 1 0.464254 0.0356926 0.422484 55.845 -2.03709e-07 
239 1 0.392739 0.0714717 0.295554 55.845 1.94034e-07 
240 1 0.392898 0.107115 0.337397 55.845 3.19642e-07 
241 1 0.428586 0.107135 0.295681 55.845 2.76408e-07 
246 1 0.392826 1.97358e-05 0.295628 55.845 3.32372e-07 
247 1 0.39284 0.0358259 0.337423 55.845 1.58404e-07 
248 1 0.428524 0.0356722 0.29567 55.845 2.67901e-07 
249 1 0.42864 0.0713823 0.337435 55.845 1.63612e-07 
250 1 0.464316 0.0714408 0.295612 55.845 4.13012e-07 
251 1 0.464203 0.107129 0.337507 55.845 3.55106e-07 
252 1 0.428446 9.00701e-06 0.337389 55.845 2.05163e-07 
253 1 0.464294 -2.3447e-05 0.295548 55.845 3.27231e-07 
254 1 0.464294 0.0356946 0.337292 55.845 1.99781e-07 
342 1 0.392838 0.107207 0.253459 55.845 4.37489e-07 
349 1 0.392852 0.0357029 0.253425 55.845 4.23929e-07 
351 1 0.428604 0.0714288 0.253389 55.845 3.08621e-07 
353 1 0.464234 0.107192 0.253553 55.845 3.85272e-07 
354 1 0.42842 1.43839e-05 0.253359 55.845 4.31833e-07 
356 1 0.464267 0.0357957 0.253381 55.845 3.98828e-07 
1 1 1.79627e-05 0.178578 0.464085 55.845 2.85023e-07 
2 1 0.0356354 0.214162 0.464119 55.845 1.96184e-07 
4 1 0.0357312 0.142862 0.464296 55.845 2.24857e-07 
5 1 0.0714364 0.178571 0.464225 55.845 2.02841e-07 
6 1 0.107193 0.214165 0.464253 55.845 2.42796e-07 
10 1 0.1071 0.142798 0.464094 55.845 2.45067e-07 
51 1 -3.71719e-06 0.178577 0.379827 55.845 -7.34135e-07 
52 1 -5.2618e-06 0.214264 0.422552 55.845 1.43885e-07 
53 1 0.0357602 0.214176 0.379783 55.845 -6.72811e-07 
54 1 0.0356178 0.249913 0.422382 55.845 1.7546e-08 
56 1 4.24593e-05 0.142687 0.422438 55.845 1.44557e-07 
57 1 0.0357041 0.142774 0.37963 55.845 -7.54293e-07 
58 1 0.0356803 0.178593 0.422637 55.845 1.95016e-07 
59 1 0.0713949 0.178603 0.379648 55.845 -7.69889e-07 
60 1 0.0714902 0.214246 0.422473 55.845 3.31346e-08 
61 1 0.107142 0.214264 0.379795 55.845 -8.27853e-07 
62 1 0.107084 0.249899 0.422577 55.845 -7.53673e-08 
68 1 0.0714302 0.142914 0.4224 55.845 3.78017e-08 
69 1 0.107098 0.142844 0.37956 55.845 -7.21789e-07 
70 1 0.107094 0.178513 0.422644 55.845 2.61969e-08 
153 1 -1.98534e-05 0.178559 0.295622 55.845 4.78763e-08 
154 1 1.74514e-05 0.214263 0.337462 55.845 5.27522e-07 
155 1 0.0356974 0.214186 0.295594 55.845 2.41878e-07 
156 1 0.0356722 0.249928 0.337346 55.845 4.90164e-07 
158 1 -1.51829e-05 0.142901 0.337356 55.845 6.24007e-07 
159 1 0.0357092 0.142843 0.295532 55.845 1.02972e-07 
160 1 0.0356794 0.178502 0.337443 55.845 5.75897e-07 
161 1 0.0713408 0.178603 0.29551 55.845 2.09611e-07 
162 1 0.0713382 0.214235 0.337348 55.845 5.42357e-07 
163 1 0.107087 0.214278 0.295582 55.845 2.0996e-07 
164 1 0.107199 0.249903 0.337447 55.845 1.50488e-07 
170 1 0.0713825 0.142858 0.337283 55.845 5.14685e-07 
171 1 0.107111 0.142809 0.295499 55.845 2.27427e-07 
172 1 0.107082 0.178486 0.337422 55.845 5.26397e-07 
256 1 -2.46414e-05 0.214284 0.253516 55.845 3.48239e-07 
258 1 0.0356555 0.249955 0.25344 55.845 3.36237e-07 
260 1 -1.38085e-06 0.142829 0.253314 55.845 5.19921e-07 
262 1 0.0356564 0.178531 0.253299 55.845 4.70188e-07 
264 1 0.0714305 0.214264 0.253253 55.845 4.02035e-07 
266 1 0.10709 0.249922 0.253432 55.845 1.26705e-07 
272 1 0.0714666 0.142859 0.253325 55.845 5.09213e-07 
274 1 0.107075 0.178593 0.253438 55.845 5.46112e-07 
11 1 0.142896 0.178537 0.464264 55.845 3.31334e-07 
12 1 0.178518 0.214374 0.464134 55.845 4.21234e-07 
17 1 0.178482 0.142739 0.464347 55.845 4.25463e-07 
18 1 0.21415 0.178523 0.464183 55.845 4.45254e-07 
19 1 0.24997 0.214348 0.464037 55.845 2.60017e-07 
24 1 0.249922 0.142908 0.464294 55.845 4.62802e-07 
71 1 0.14278 0.178537 0.379738 55.845 -7.04524e-07 
72 1 0.142788 0.214268 0.422627 55.845 -3.08823e-08 
73 1 0.178553 0.214221 0.379802 55.845 -8.34436e-07 
82 1 0.142853 0.142764 0.422436 55.845 -4.10991e-08 
83 1 0.178494 0.142854 0.379697 55.845 -5.82731e-07 
84 1 0.178498 0.178533 0.422724 55.845 3.03541e-08 
85 1 0.214181 0.178629 0.379927 55.845 -7.65435e-07 
86 1 0.214241 0.214357 0.422585 55.845 -6.72648e-08 
87 1 0.250028 0.214343 0.37971 55.845 -7.33677e-07 
96 1 0.214156 0.142867 0.422668 55.845 -8.8697e-08 
97 1 0.249877 0.142926 0.37973 55.845 -8.02214e-07 
98 1 0.249901 0.178523 0.422722 55.845 -9.66426e-08 
173 1 0.142837 0.178575 0.295612 55.845 4.34752e-07 
174 1 0.142837 0.214143 0.337544 55.845 2.57065e-07 
175 1 0.178545 0.21429 0.295673 55.845 2.60403e-07 
184 1 0.142843 0.142801 0.337081 55.845 3.9249e-07 
185 1 0.178488 0.142822 0.295409 55.845 4.56365e-07 
186 1 0.178525 0.17857 0.337445 55.845 2.44838e-07 
187 1 0.214229 0.178603 0.29586 55.845 3.01602e-07 
188 1 0.214224 0.214355 0.337464 55.845 1.72543e-07 
189 1 0.249952 0.214219 0.295491 55.845 3.4046e-07 
198 1 0.214316 0.142838 0.337307 55.845 3.22608e-08 
199 1 0.250073 0.142775 0.295731 55.845 8.32774e-08 
200 1 0.249987 0.178689 0.33748 55.845 -4.23448e-08 
276 1 0.142777 0.214203 0.253284 55.845 2.95658e-07 
286 1 0.142795 0.142872 0.253332 55.845 4.66719e-07 
288 1 0.178517 0.178606 0.253376 55.845 3.75272e-07 
290 1 0.214259 0.214263 0.253352 55.845 3.10819e-07 
300 1 0.214285 0.14283 0.253381 55.845 1.62623e-07 
302 1 0.250006 0.178546 0.253474 55.845 1.2562e-07 
25 1 0.285681 0.178593 0.464325 55.845 3.79915e-07 
26 1 0.321366 0.214341 0.46428 55.845 3.63425e-07 
31 1 0.321455 0.142954 0.464165 55.845 3.81289e-07 
32 1 0.357098 0.178583 0.464288 55.845 2.90978e-07 
99 1 0.28563 0.178654 0.379864 55.845 -7.45519e-07 
100 1 0.285718 0.214316 0.422697 55.845 -6.19813e-08 
101 1 0.321497 0.214227 0.379588 55.845 -5.73539e-07 
110 1 0.285659 0.142879 0.422359 55.845 -1.53293e-07 
111 1 0.321451 0.142883 0.379797 55.845 -6.37805e-07 
112 1 0.321421 0.178709 0.422465 55.845 -5.63707e-08 
113 1 0.357202 0.178579 0.379756 55.845 -4.82519e-07 
114 1 0.35716 0.21428 0.422605 55.845 -4.97191e-09 
126 1 0.357136 0.14288 0.422581 55.845 -1.0405e-07 
201 1 0.285732 0.17853 0.295888 55.845 1.58736e-07 
202 1 0.285638 0.214372 0.337488 55.845 2.74872e-07 
203 1 0.321393 0.214286 0.295658 55.845 3.16303e-07 
212 1 0.285672 0.14291 0.337526 55.845 -8.25718e-08 
213 1 0.321432 0.142958 0.295692 55.845 1.86887e-07 
214 1 0.321431 0.178569 0.337425 55.845 2.24653e-07 
215 1 0.357062 0.17846 0.295711 55.845 3.50192e-07 
216 1 0.357144 0.21427 0.337283 55.845 2.96724e-07 
228 1 0.35712 0.142845 0.337305 55.845 3.88788e-07 