ITEM: TIMESTEP
500
ITEM: NUMBER OF ATOMS
5880
ITEM: BOX BOUNDS pp pp ff
-27.9175 27.9175
-27.9175 27.9175
0 34.092
ITEM: ATOMS id type xs ys zs mass q 
259 1 -2.30693e-05 0.107134 0.210794 55.845 1.46687e-07 
267 1 2.87631e-05 0.0356594 0.210717 55.845 1.54836e-07 
269 1 0.0357107 0.0713357 0.210687 55.845 2.36888e-07 
271 1 0.0713569 0.107163 0.210872 55.845 -4.85082e-08 
279 1 0.0357829 -2.80732e-05 0.210742 55.845 1.20214e-07 
281 1 0.0714629 0.0356892 0.210883 55.845 -7.27232e-08 
283 1 0.107167 0.0714307 0.210842 55.845 -4.94808e-08 
293 1 0.107116 7.08011e-06 0.210733 55.845 3.20092e-08 
361 1 2.10856e-05 0.107138 0.126654 55.845 1.28651e-07 
369 1 -3.08107e-06 0.0357973 0.126675 55.845 3.18963e-07 
370 1 2.10054e-05 0.0714342 0.169193 55.845 -9.6401e-08 
371 1 0.0357541 0.0713666 0.126565 55.845 1.35237e-08 
372 1 0.0356803 0.107104 0.169267 55.845 -1.03449e-07 
373 1 0.0714396 0.107138 0.126661 55.845 6.24552e-08 
380 1 2.11335e-05 1.73413e-06 0.169233 55.845 6.7453e-08 
381 1 0.0356854 3.07063e-05 0.126511 55.845 5.23416e-07 
382 1 0.0357373 0.0356687 0.169227 55.845 6.2986e-08 
383 1 0.0714267 0.0356801 0.126665 55.845 1.66747e-07 
384 1 0.071449 0.0713976 0.169271 55.845 -3.01316e-07 
385 1 0.107181 0.0713777 0.126573 55.845 2.0615e-07 
386 1 0.107119 0.107146 0.169263 55.845 -3.8588e-07 
394 1 0.0714369 -5.26721e-06 0.169174 55.845 7.536e-08 
395 1 0.107061 -4.8249e-05 0.126562 55.845 4.6552e-07 
396 1 0.107147 0.0357192 0.16924 55.845 6.00867e-08 
463 1 0 0.107143 0.0416667 55.845 6.49597e-07 
471 1 0 0.0357143 0.0416667 55.845 3.65393e-07 
472 1 -1.37445e-06 0.0713854 0.0835626 55.845 -6.75422e-07 
473 1 0.0357143 0.0714286 0.0416667 55.845 6.52343e-07 
474 1 0.0356976 0.107062 0.0836001 55.845 -1.65837e-07 
475 1 0.0714286 0.107143 0.0416667 55.845 7.97701e-07 
482 1 -4.36258e-05 3.52169e-05 0.0834507 55.845 -2.4071e-07 
483 1 0.0357143 0 0.0416667 55.845 5.06964e-07 
484 1 0.0357439 0.0357322 0.083521 55.845 -6.04928e-07 
485 1 0.0714286 0.0357143 0.0416667 55.845 4.87081e-07 
486 1 0.0714816 0.0714766 0.0834839 55.845 -5.23089e-07 
487 1 0.107143 0.0714286 0.0416667 55.845 4.93266e-07 
488 1 0.107091 0.107128 0.0835223 55.845 -2.85603e-07 
496 1 0.071377 -3.41119e-05 0.0834673 55.845 -5.10815e-07 
497 1 0.107143 0 0.0416667 55.845 2.90481e-07 
498 1 0.107185 0.0356984 0.0836006 55.845 -5.69244e-07 
567 1 0 0.0714286 0 55.845 -6.40242e-08 
568 1 0.0357143 0.107143 0 55.845 1.0784e-07 
572 1 0 0 0 55.845 -4.679e-07 
573 1 0.0357143 0.0357143 0 55.845 -1.80305e-07 
574 1 0.0714286 0.0714286 0 55.845 -1.1142e-07 
575 1 0.107143 0.107143 0 55.845 -3.96208e-07 
579 1 0.0714286 0 0 55.845 -5.00542e-07 
580 1 0.107143 0.0357143 0 55.845 -2.28023e-07 
285 1 0.142836 0.107139 0.210809 55.845 -2.03304e-07 
295 1 0.142845 0.0356594 0.210803 55.845 1.74935e-07 
297 1 0.178538 0.0715001 0.210747 55.845 4.35011e-07 
299 1 0.214298 0.10718 0.2108 55.845 2.43823e-07 
307 1 0.17857 -4.96719e-05 0.210782 55.845 -5.09571e-08 
309 1 0.214288 0.0357379 0.210737 55.845 7.87871e-08 
311 1 0.25003 0.0714246 0.210761 55.845 4.06632e-07 
387 1 0.142919 0.107118 0.126638 55.845 3.74156e-07 
397 1 0.142875 0.0356869 0.126629 55.845 4.69674e-07 
398 1 0.142812 0.0714144 0.169283 55.845 -2.84492e-07 
399 1 0.178529 0.0713853 0.126649 55.845 5.39987e-07 
400 1 0.178588 0.107121 0.169234 55.845 -7.15151e-08 
401 1 0.214291 0.107142 0.126629 55.845 6.72682e-07 
408 1 0.142836 -1.45597e-05 0.169157 55.845 1.93397e-07 
409 1 0.178564 -1.73633e-05 0.126705 55.845 3.62256e-07 
410 1 0.178558 0.0356494 0.16928 55.845 1.24953e-08 
411 1 0.214286 0.0357026 0.126584 55.845 8.90846e-08 
412 1 0.214267 0.0714501 0.169099 55.845 3.98653e-07 
413 1 0.249984 0.0713792 0.126506 55.845 2.82622e-07 
414 1 0.249945 0.107105 0.169285 55.845 3.14424e-07 
424 1 0.214297 -2.40787e-05 0.169301 55.845 -1.06075e-07 
426 1 0.250056 0.0357217 0.169259 55.845 3.51086e-09 
489 1 0.142857 0.107143 0.0416667 55.845 8.46573e-07 
499 1 0.142857 0.0357143 0.0416667 55.845 5.98749e-07 
500 1 0.142809 0.0714067 0.083632 55.845 -6.0694e-07 
501 1 0.178571 0.0714286 0.0416667 55.845 2.45977e-07 
502 1 0.17858 0.107146 0.083529 55.845 -3.24248e-07 
503 1 0.214286 0.107143 0.0416667 55.845 2.47366e-07 
510 1 0.142868 1.08552e-05 0.0836385 55.845 -5.45087e-07 
511 1 0.178571 0 0.0416667 55.845 6.75316e-07 
512 1 0.178582 0.0357544 0.0837672 55.845 -9.51328e-07 
513 1 0.214286 0.0357143 0.0416667 55.845 2.3715e-07 
514 1 0.214275 0.0714252 0.0835814 55.845 -7.65041e-07 
515 1 0.25 0.0714286 0.0416667 55.845 3.07739e-07 
516 1 0.25002 0.107173 0.0836884 55.845 -6.56165e-07 
526 1 0.214237 -5.30074e-06 0.0835375 55.845 -2.40441e-07 
528 1 0.249997 0.0357293 0.0836096 55.845 -7.60048e-07 
581 1 0.142857 0.0714286 0 55.845 -4.24583e-07 
582 1 0.178571 0.107143 0 55.845 -6.87166e-07 
586 1 0.142857 0 0 55.845 -7.94319e-08 
587 1 0.178571 0.0357143 0 55.845 -1.32754e-07 
588 1 0.214286 0.0714286 0 55.845 -2.55987e-07 
589 1 0.25 0.107143 0 55.845 -2.3602e-07 
594 1 0.214286 0 0 55.845 -2.21667e-08 
595 1 0.25 0.0357143 0 55.845 -8.50312e-08 
313 1 0.285722 0.107227 0.210745 55.845 -1.51218e-07 
323 1 0.250072 2.45246e-05 0.210739 55.845 -4.38964e-07 
325 1 0.28574 0.035728 0.210779 55.845 -9.51172e-08 
327 1 0.32144 0.0714396 0.21082 55.845 -9.47388e-08 
329 1 0.357153 0.107159 0.210706 55.845 -5.24026e-08 
337 1 0.32143 -4.39205e-05 0.210739 55.845 1.64827e-07 
339 1 0.357174 0.0357103 0.210732 55.845 2.04453e-09 
415 1 0.285694 0.107103 0.126679 55.845 8.20547e-08 
425 1 0.250022 5.10966e-05 0.126575 55.845 3.08295e-07 
427 1 0.28568 0.0357146 0.126542 55.845 3.24361e-07 
428 1 0.285725 0.0714024 0.169204 55.845 -5.83953e-08 
429 1 0.321438 0.0714124 0.126623 55.845 4.97379e-07 
430 1 0.321416 0.107117 0.169147 55.845 -8.52655e-08 
431 1 0.357196 0.107155 0.126595 55.845 1.43437e-07 
439 1 0.321441 -3.28316e-05 0.126537 55.845 4.00859e-07 
440 1 0.321463 0.0356685 0.169156 55.845 -1.26791e-07 
441 1 0.35714 0.0357098 0.126617 55.845 3.09852e-07 
442 1 0.357154 0.0714583 0.169155 55.845 -1.44569e-07 
517 1 0.285714 0.107143 0.0416667 55.845 3.91291e-07 
527 1 0.25 0 0.0416667 55.845 4.29029e-07 
529 1 0.285714 0.0357143 0.0416667 55.845 6.46285e-07 
530 1 0.285737 0.0714602 0.083542 55.845 -5.66238e-07 
531 1 0.321429 0.0714286 0.0416667 55.845 7.53157e-07 
532 1 0.321478 0.107182 0.083599 55.845 -4.50516e-07 
533 1 0.357143 0.107143 0.0416667 55.845 7.15098e-07 
603 1 0.357143 0.0714286 0 55.845 -2.87848e-07 
541 1 0.321429 0 0.0416667 55.845 4.43004e-07 
542 1 0.321395 0.0356423 0.0836651 55.845 -2.77195e-07 
543 1 0.357143 0.0357143 0.0416667 55.845 7.33227e-07 
544 1 0.357127 0.0713773 0.0837005 55.845 -4.67814e-08 
602 1 0.321429 0.0357143 0 55.845 -2.42429e-07 
596 1 0.285714 0.0714286 0 55.845 1.0694e-07 
597 1 0.321429 0.107143 0 55.845 -2.90354e-07 
612 1 0.464286 0.0357143 0 55.845 -2.46519e-07 
611 1 0.428571 0 0 55.845 -3.6138e-07 
610 1 0.464286 0.107143 0 55.845 -4.33323e-07 
609 1 0.428571 0.0714286 0 55.845 -2.76104e-07 
608 1 0.392857 0.0357143 0 55.845 -2.94535e-07 
341 1 0.392828 0.0714424 0.210767 55.845 1.06636e-07 
343 1 0.428631 0.107236 0.210798 55.845 1.38937e-07 
348 1 0.392801 -3.52758e-05 0.210721 55.845 1.08612e-07 
350 1 0.428601 0.0357582 0.210838 55.845 2.67983e-08 
352 1 0.464295 0.0714067 0.210805 55.845 5.48781e-07 
355 1 0.464293 5.09751e-05 0.210688 55.845 -4.25163e-07 
443 1 0.392912 0.0714436 0.126579 55.845 2.86652e-07 
444 1 0.392906 0.107128 0.169244 55.845 -4.12914e-07 
445 1 0.428582 0.107165 0.126496 55.845 3.19485e-08 
604 1 0.392857 0.107143 0 55.845 -3.83198e-07 
450 1 0.392824 -1.30442e-05 0.126566 55.845 1.54769e-08 
451 1 0.392924 0.0357794 0.169166 55.845 -2.62011e-07 
452 1 0.428586 0.0356885 0.126587 55.845 3.69377e-07 
453 1 0.428599 0.0714634 0.169315 55.845 -5.91999e-09 
454 1 0.464279 0.0714743 0.126582 55.845 4.77476e-07 
455 1 0.464274 0.107171 0.16922 55.845 1.58152e-07 
456 1 0.428536 2.39269e-06 0.16912 55.845 -2.8543e-07 
457 1 0.46439 2.41435e-05 0.126602 55.845 2.67303e-07 
458 1 0.464295 0.0357697 0.169177 55.845 2.25381e-07 
545 1 0.392857 0.0714286 0.0416667 55.845 6.49795e-07 
546 1 0.392844 0.107157 0.0835216 55.845 -6.82426e-07 
547 1 0.428571 0.107143 0.0416667 55.845 2.55344e-07 
552 1 0.392857 0 0.0416667 55.845 2.12904e-07 
553 1 0.392822 0.0357647 0.0835272 55.845 -5.31058e-07 
554 1 0.428571 0.0357143 0.0416667 55.845 6.35878e-07 
555 1 0.428495 0.0713961 0.0836149 55.845 -4.54757e-07 
556 1 0.464286 0.0714286 0.0416667 55.845 4.7711e-07 
557 1 0.464274 0.107167 0.0835953 55.845 -5.51476e-07 
558 1 0.428539 -1.69237e-05 0.0836019 55.845 -6.12971e-07 
559 1 0.464286 0 0.0416667 55.845 4.73123e-07 
560 1 0.464309 0.0357426 0.0836709 55.845 -3.33773e-07 
255 1 3.41179e-05 0.178571 0.21069 55.845 4.64165e-08 
257 1 0.0356783 0.214313 0.210686 55.845 4.41086e-07 
261 1 0.0357117 0.142834 0.210677 55.845 7.90264e-08 
263 1 0.0714534 0.17851 0.210795 55.845 3.07637e-07 
265 1 0.107236 0.214227 0.210745 55.845 3.37484e-07 
273 1 0.107145 0.142777 0.210785 55.845 -1.16277e-08 
357 1 -7.9421e-06 0.178536 0.126583 55.845 2.01969e-07 
358 1 -2.74521e-05 0.214285 0.16918 55.845 -1.89609e-07 
359 1 0.0357707 0.214249 0.126497 55.845 4.13796e-07 
360 1 0.0356621 0.250012 0.169152 55.845 -8.78893e-08 
362 1 3.36193e-05 0.142862 0.169124 55.845 -2.70669e-07 
363 1 0.0357739 0.142843 0.126464 55.845 3.88792e-07 
364 1 0.0357364 0.178529 0.169094 55.845 -2.26297e-07 
365 1 0.0714523 0.178568 0.126566 55.845 1.54538e-07 
366 1 0.0714787 0.214251 0.169159 55.845 -6.74651e-09 
367 1 0.107144 0.214274 0.126711 55.845 1.18491e-07 
368 1 0.107185 0.249907 0.16918 55.845 1.71169e-07 
374 1 0.0713976 0.142903 0.169102 55.845 -9.0538e-08 
375 1 0.10719 0.14288 0.126513 55.845 1.15092e-07 
376 1 0.107132 0.178522 0.169201 55.845 -3.3655e-07 
459 1 0 0.178571 0.0416667 55.845 3.59748e-07 
460 1 8.70378e-06 0.214366 0.0836957 55.845 -4.56762e-07 
461 1 0.0357143 0.214286 0.0416667 55.845 6.42394e-07 
462 1 0.0357186 0.250009 0.0837473 55.845 -4.36974e-07 
464 1 3.48938e-05 0.142815 0.0834639 55.845 -3.47386e-07 
465 1 0.0357143 0.142857 0.0416667 55.845 6.6569e-07 
466 1 0.035744 0.178556 0.0835272 55.845 -5.28908e-07 
467 1 0.0714286 0.178571 0.0416667 55.845 1.82e-07 
468 1 0.0714668 0.21431 0.0835011 55.845 -6.77224e-07 
469 1 0.107143 0.214286 0.0416667 55.845 2.79498e-07 
470 1 0.107202 0.250024 0.0834477 55.845 -5.46287e-07 
476 1 0.0714388 0.142756 0.0834757 55.845 -4.54781e-07 
477 1 0.107143 0.142857 0.0416667 55.845 7.5335e-07 
478 1 0.107127 0.178629 0.0833819 55.845 -8.10654e-07 
561 1 0 0.214286 0 55.845 -5.00119e-08 
562 1 0.0357143 0.25 0 55.845 1.27782e-08 
563 1 0 0.142857 0 55.845 -2.66171e-07 
564 1 0.0357143 0.178571 0 55.845 -5.80869e-07 
565 1 0.0714286 0.214286 0 55.845 -2.95625e-07 
566 1 0.107143 0.25 0 55.845 -5.08829e-07 
569 1 0.0714286 0.142857 0 55.845 -6.63674e-07 
570 1 0.107143 0.178571 0 55.845 -4.36406e-07 
275 1 0.142883 0.178492 0.210694 55.845 5.66042e-08 
277 1 0.178621 0.214284 0.210831 55.845 2.07363e-07 
287 1 0.178555 0.142783 0.210823 55.845 -1.79487e-07 
289 1 0.214264 0.17855 0.210764 55.845 -2.91156e-07 
291 1 0.250012 0.214351 0.210911 55.845 -3.54486e-07 
301 1 0.250035 0.142912 0.210818 55.845 -2.31372e-07 
377 1 0.14288 0.178576 0.126588 55.845 2.07238e-07 
378 1 0.142972 0.214278 0.169097 55.845 1.18412e-07 
379 1 0.178613 0.214233 0.126541 55.845 3.94101e-07 
388 1 0.142876 0.142789 0.16915 55.845 -6.09923e-07 
389 1 0.178501 0.142871 0.126484 55.845 4.49393e-07 
390 1 0.178539 0.178526 0.169196 55.845 -4.08231e-07 
391 1 0.214257 0.178585 0.12667 55.845 5.03697e-07 
392 1 0.214334 0.214355 0.169148 55.845 -1.64183e-07 
393 1 0.24996 0.214323 0.126617 55.845 3.72445e-07 
402 1 0.214308 0.142851 0.169189 55.845 -5.01236e-08 
403 1 0.250019 0.14291 0.126648 55.845 5.24671e-07 
404 1 0.250019 0.178645 0.169253 55.845 -3.75391e-07 
479 1 0.142857 0.178571 0.0416667 55.845 6.15201e-07 
480 1 0.142837 0.21433 0.0835949 55.845 -5.64164e-07 
481 1 0.178571 0.214286 0.0416667 55.845 5.16987e-07 
490 1 0.142827 0.142803 0.0835004 55.845 -2.67127e-07 
491 1 0.178571 0.142857 0.0416667 55.845 3.88121e-07 
492 1 0.178568 0.178522 0.0836085 55.845 -5.36273e-07 
493 1 0.214286 0.178571 0.0416667 55.845 5.81763e-07 
494 1 0.2143 0.214285 0.0836807 55.845 -3.75333e-07 
495 1 0.25 0.214286 0.0416667 55.845 8.66329e-07 
504 1 0.214226 0.142786 0.0836127 55.845 -2.88587e-07 
505 1 0.25 0.142857 0.0416667 55.845 6.34868e-07 
506 1 0.250046 0.178558 0.0836735 55.845 -3.56364e-07 
571 1 0.142857 0.214286 0 55.845 -2.43207e-07 
576 1 0.142857 0.142857 0 55.845 -4.18861e-07 
577 1 0.178571 0.178571 0 55.845 -4.8673e-07 
578 1 0.214286 0.214286 0 55.845 -1.64724e-07 
583 1 0.214286 0.142857 0 55.845 -8.12032e-07 
584 1 0.25 0.178571 0 55.845 -1.60319e-07 
303 1 0.285717 0.178546 0.210781 55.845 1.58925e-07 
305 1 0.321466 0.214306 0.210786 55.845 4.02393e-07 
315 1 0.321415 0.142868 0.210713 55.845 -3.69306e-08 
317 1 0.357107 0.178607 0.210833 55.845 1.62641e-07 
405 1 0.285706 0.17863 0.126701 55.845 5.39128e-07 
406 1 0.285717 0.214358 0.169272 55.845 5.69036e-08 
407 1 0.321413 0.214275 0.126725 55.845 3.27305e-07 
416 1 0.285745 0.142858 0.169146 55.845 -5.31497e-07 
417 1 0.321434 0.142898 0.126724 55.845 2.23596e-07 
418 1 0.321396 0.178574 0.169186 55.845 -9.11244e-08 
419 1 0.357149 0.178561 0.126575 55.845 3.82079e-07 
420 1 0.357177 0.214316 0.169212 55.845 1.82152e-07 
432 1 0.357147 0.142878 0.169245 55.845 -2.62442e-07 
507 1 0.285714 0.178571 0.0416667 55.845 6.30581e-07 
508 1 0.285702 0.214297 0.0836632 55.845 -2.90667e-07 
509 1 0.321429 0.214286 0.0416667 55.845 1.23309e-07 
518 1 0.285744 0.142844 0.0836491 55.845 -6.32223e-07 
519 1 0.321429 0.142857 0.0416667 55.845 2.94023e-07 
520 1 0.321371 0.17861 0.0835854 55.845 -6.40986e-07 
521 1 0.357143 0.178571 0.0416667 55.845 4.7395e-07 
522 1 0.357136 0.214373 0.0837197 55.845 -6.49183e-07 
534 1 0.357136 0.14289 0.083659 55.845 -2.77577e-07 
585 1 0.285714 0.214286 0 55.845 -2.87513e-07 
590 1 0.285714 0.142857 0 55.845 -3.56748e-07 
591 1 0.321429 0.178571 0 55.845 -6.37831e-07 
592 1 0.357143 0.214286 0 55.845 -7.02945e-07 
598 1 0.357143 0.142857 0 55.845 -4.20611e-07 
319 1 0.39286 0.21425 0.210798 55.845 2.1035e-07 
321 1 0.428542 0.249906 0.210702 55.845 -7.63227e-08 
331 1 0.392884 0.142944 0.210808 55.845 -9.66222e-08 
333 1 0.428536 0.178593 0.210696 55.845 1.7262e-07 
335 1 0.464318 0.21429 0.210858 55.845 -1.19176e-07 
345 1 0.46428 0.142885 0.21073 55.845 2.64458e-07 
606 1 0.464286 0.178571 0 55.845 -1.14648e-07 
421 1 0.392833 0.214259 0.126523 55.845 4.67215e-07 
422 1 0.392861 0.249967 0.16914 55.845 1.26655e-08 
423 1 0.428538 0.250014 0.126549 55.845 3.45995e-07 
433 1 0.392919 0.1429 0.12663 55.845 2.29881e-07 
434 1 0.39289 0.178533 0.169255 55.845 -2.6848e-07 
435 1 0.42856 0.178593 0.126611 55.845 5.17038e-07 
436 1 0.428513 0.214286 0.169172 55.845 -2.99394e-07 
437 1 0.464256 0.214244 0.126617 55.845 -3.02903e-08 
605 1 0.428571 0.142857 0 55.845 -1.60434e-07 
446 1 0.428562 0.142836 0.169193 55.845 -1.60157e-07 
447 1 0.464248 0.142871 0.126547 55.845 4.46828e-07 
448 1 0.464266 0.178557 0.169212 55.845 9.08812e-08 
523 1 0.392857 0.214286 0.0416667 55.845 5.30684e-07 
524 1 0.392881 0.249987 0.0835596 55.845 -3.44592e-07 
525 1 0.428571 0.25 0.0416667 55.845 3.14246e-07 
535 1 0.392857 0.142857 0.0416667 55.845 7.71873e-07 
536 1 0.392882 0.178617 0.0834701 55.845 -2.81528e-07 
537 1 0.428571 0.178571 0.0416667 55.845 6.97248e-07 
538 1 0.428628 0.21431 0.0835859 55.845 -6.12338e-07 
539 1 0.464286 0.214286 0.0416667 55.845 3.51859e-07 
548 1 0.428584 0.142905 0.0834592 55.845 -3.61191e-07 
549 1 0.464286 0.142857 0.0416667 55.845 5.59189e-07 
550 1 0.464293 0.178601 0.0836681 55.845 -2.4546e-07 
593 1 0.392857 0.25 0 55.845 -3.89669e-07 
599 1 0.392857 0.178571 0 55.845 -5.38195e-08 
600 1 0.428571 0.214286 0 55.845 -4.22929e-07 
3 1 4.86348e-06 0.107173 0.461719 55.845 3.38511e-07 
7 1 -3.95215e-05 0.0357251 0.461775 55.845 3.06816e-07 
8 1 0.0357481 0.0714544 0.461728 55.845 4.69753e-07 
9 1 0.0714779 0.107161 0.461695 55.845 1.06174e-07 
13 1 0.0357332 1.70843e-07 0.461781 55.845 3.59051e-08 
14 1 0.0714479 0.035697 0.461709 55.845 3.8929e-07 
15 1 0.107159 0.0714393 0.461716 55.845 2.98204e-07 
20 1 0.107098 -6.43933e-05 0.461692 55.845 1.12972e-07 
55 1 3.44023e-05 0.107148 0.378457 55.845 4.03032e-07 
63 1 -3.93216e-05 0.0356675 0.378452 55.845 6.67076e-07 
64 1 5.89136e-06 0.0714347 0.420167 55.845 -6.94526e-07 
65 1 0.035782 0.0713954 0.378393 55.845 3.41088e-07 
66 1 0.0357489 0.107129 0.420053 55.845 -2.96869e-07 
67 1 0.0714344 0.107225 0.378334 55.845 2.77747e-07 
74 1 -6.0626e-07 1.76139e-05 0.420173 55.845 -6.82057e-07 
75 1 0.0356849 -2.27349e-05 0.378519 55.845 4.63195e-07 
76 1 0.0357035 0.0357134 0.420047 55.845 -6.25449e-07 
77 1 0.0713998 0.0356738 0.378349 55.845 4.36884e-07 
78 1 0.0715121 0.071373 0.419996 55.845 -3.81829e-07 
79 1 0.107125 0.0713311 0.37832 55.845 3.94362e-07 
80 1 0.107252 0.107144 0.419973 55.845 -4.49541e-07 
88 1 0.0714408 4.34159e-05 0.420029 55.845 -6.68206e-07 
89 1 0.107142 -5.64685e-05 0.378423 55.845 2.753e-07 
90 1 0.107172 0.0356183 0.420179 55.845 -4.21927e-07 
157 1 8.51864e-05 0.107109 0.294628 55.845 1.83693e-08 
165 1 -6.35958e-05 0.0357076 0.294579 55.845 2.5115e-07 
166 1 4.77499e-05 0.0713772 0.336854 55.845 -3.71909e-07 
167 1 0.0357359 0.0713575 0.294617 55.845 -1.06245e-07 
168 1 0.0357538 0.1071 0.336858 55.845 -5.83111e-07 
169 1 0.0714977 0.107096 0.294709 55.845 -2.6904e-08 
176 1 3.3113e-05 -3.98579e-05 0.336752 55.845 -2.96165e-07 
177 1 0.035695 -3.56872e-05 0.294648 55.845 2.88759e-07 
178 1 0.0356897 0.0357055 0.336798 55.845 -7.89024e-08 
179 1 0.0714413 0.0356783 0.294612 55.845 -1.09881e-07 
180 1 0.0714638 0.0714191 0.336783 55.845 -4.12157e-07 
181 1 0.107243 0.0714044 0.29472 55.845 9.2839e-09 
182 1 0.107164 0.10716 0.336818 55.845 -3.32346e-08 
190 1 0.0714091 -8.13546e-05 0.336802 55.845 -1.33599e-07 
191 1 0.107137 -8.38296e-05 0.294677 55.845 -1.3945e-08 
192 1 0.107113 0.0356699 0.336887 55.845 -2.68007e-07 
268 1 7.70596e-05 0.0713783 0.252398 55.845 4.58912e-07 
270 1 0.0357495 0.107089 0.25242 55.845 1.3994e-07 
278 1 3.90089e-05 -2.54167e-05 0.252317 55.845 1.43037e-07 
280 1 0.0357242 0.0356324 0.252346 55.845 3.46649e-07 
282 1 0.0714419 0.0713687 0.252389 55.845 1.59667e-07 
284 1 0.107151 0.107095 0.2525 55.845 4.70039e-07 
292 1 0.0714037 -3.33858e-05 0.252424 55.845 1.33979e-07 
294 1 0.107159 0.0356439 0.252499 55.845 3.86838e-08 
16 1 0.142881 0.107136 0.461681 55.845 1.19699e-07 
21 1 0.142856 0.0356812 0.461661 55.845 3.12699e-08 
22 1 0.178558 0.0714215 0.46164 55.845 -2.67266e-08 
23 1 0.214353 0.107114 0.461706 55.845 -1.76711e-07 
27 1 0.178582 5.55208e-05 0.461745 55.845 5.82567e-07 
28 1 0.214306 0.0357315 0.461777 55.845 6.72297e-08 
29 1 0.250002 0.0714588 0.461664 55.845 3.05497e-07 
81 1 0.142939 0.107099 0.378505 55.845 7.0568e-07 
91 1 0.142906 0.035667 0.378345 55.845 4.28704e-07 
92 1 0.142839 0.0714586 0.420065 55.845 -5.71123e-07 
93 1 0.17858 0.0713814 0.378442 55.845 4.57603e-07 
94 1 0.178649 0.107125 0.420108 55.845 -5.52823e-07 
95 1 0.2143 0.107072 0.3784 55.845 6.11294e-07 
102 1 0.142839 -7.29513e-05 0.420107 55.845 -7.98452e-07 
103 1 0.178606 -7.70637e-05 0.378411 55.845 8.63086e-07 
104 1 0.178516 0.0356635 0.420146 55.845 -7.56231e-07 
105 1 0.214249 0.0356703 0.378393 55.845 4.22803e-07 
106 1 0.214311 0.0713764 0.42006 55.845 -8.26661e-07 
107 1 0.249991 0.0714253 0.378461 55.845 6.0648e-07 
108 1 0.250007 0.107243 0.420143 55.845 -8.20114e-07 
118 1 0.214278 -3.09331e-05 0.420184 55.845 -5.32981e-07 
120 1 0.249984 0.0356413 0.420143 55.845 -8.04418e-07 
183 1 0.142882 0.107161 0.294721 55.845 4.2015e-07 
193 1 0.142917 0.0356851 0.294633 55.845 4.93916e-08 
194 1 0.142884 0.0714421 0.336787 55.845 -1.01921e-07 
195 1 0.17857 0.0714564 0.294563 55.845 1.82827e-07 
196 1 0.178636 0.107173 0.336844 55.845 1.34996e-07 
197 1 0.214384 0.107126 0.294729 55.845 2.06517e-07 
204 1 0.142877 -9.16427e-07 0.336687 55.845 -2.83304e-07 
205 1 0.178543 -2.41903e-05 0.294666 55.845 3.24772e-07 
206 1 0.178551 0.0357011 0.336808 55.845 -3.11766e-07 
207 1 0.214242 0.0357199 0.294578 55.845 -7.17257e-08 
208 1 0.214265 0.0714228 0.336841 55.845 -1.21921e-07 
209 1 0.249995 0.0714285 0.294619 55.845 4.35727e-09 
210 1 0.250111 0.107119 0.336864 55.845 -2.26919e-07 
220 1 0.2143 -1.66855e-05 0.336816 55.845 2.12389e-07 
222 1 0.249967 0.0357049 0.336867 55.845 -2.36664e-07 
296 1 0.14286 0.0713924 0.252438 55.845 1.64178e-07 
298 1 0.178613 0.107164 0.252494 55.845 -9.10724e-08 
306 1 0.142847 -7.31141e-05 0.252339 55.845 1.77383e-08 
308 1 0.178625 0.0356901 0.252365 55.845 6.35175e-08 
310 1 0.214297 0.0715095 0.252349 55.845 1.95869e-07 
312 1 0.250029 0.107116 0.252369 55.845 -2.06383e-07 
322 1 0.214363 -2.40834e-05 0.252418 55.845 -1.13354e-07 
324 1 0.249956 0.0356808 0.25238 55.845 -1.12865e-07 
30 1 0.285741 0.107157 0.461689 55.845 2.20615e-07 
35 1 0.250033 -1.46128e-06 0.461762 55.845 1.47888e-07 
36 1 0.285704 0.0357117 0.461721 55.845 3.85029e-07 
37 1 0.321423 0.0714171 0.461704 55.845 4.06667e-07 
38 1 0.357196 0.107134 0.461654 55.845 3.54147e-07 
42 1 0.321419 -6.19743e-05 0.461795 55.845 3.11017e-07 
43 1 0.357149 0.0356444 0.461722 55.845 2.84734e-07 
109 1 0.285791 0.107172 0.378405 55.845 3.84391e-07 
119 1 0.249993 -3.98873e-05 0.378335 55.845 3.23158e-07 
121 1 0.285729 0.0356852 0.378392 55.845 5.75756e-07 
122 1 0.285699 0.0714363 0.420056 55.845 -3.47317e-07 
123 1 0.321424 0.071342 0.378431 55.845 5.26292e-07 
124 1 0.321461 0.107146 0.420035 55.845 -3.90824e-07 
125 1 0.357233 0.107202 0.378391 55.845 5.40704e-07 
133 1 0.32149 -5.4712e-05 0.378389 55.845 1.65897e-07 
134 1 0.32142 0.0356536 0.420243 55.845 -3.45484e-07 
135 1 0.357174 0.0356514 0.378469 55.845 5.96793e-07 
136 1 0.357205 0.0713506 0.420142 55.845 -3.15986e-07 
211 1 0.285737 0.107159 0.294615 55.845 -3.76069e-07 
221 1 0.249981 4.82778e-06 0.294576 55.845 5.22084e-09 
223 1 0.285748 0.0356644 0.294772 55.845 1.28507e-07 
224 1 0.285659 0.071418 0.336808 55.845 -3.18399e-07 
225 1 0.32138 0.0713831 0.294687 55.845 8.5989e-08 
226 1 0.321468 0.10716 0.336811 55.845 -1.56735e-07 
227 1 0.357083 0.107126 0.29454 55.845 2.13204e-07 
235 1 0.321406 -3.2239e-05 0.294675 55.845 1.8179e-07 
236 1 0.321471 0.0356526 0.336859 55.845 -2.05687e-07 
237 1 0.357173 0.0357389 0.294669 55.845 1.00848e-07 
238 1 0.357129 0.0714392 0.336925 55.845 -9.785e-08 
326 1 0.285701 0.071377 0.252376 55.845 -1.73407e-07 
328 1 0.321419 0.107181 0.252256 55.845 1.11922e-07 
338 1 0.321457 0.0357364 0.25245 55.845 2.37191e-07 
340 1 0.357129 0.0714803 0.252488 55.845 4.33539e-07 
44 1 0.392856 0.0714233 0.461702 55.845 1.14341e-07 
45 1 0.428631 0.107139 0.461629 55.845 4.83328e-07 
47 1 0.392868 -2.08931e-05 0.461741 55.845 4.92249e-07 
48 1 0.428587 0.0357881 0.461836 55.845 1.93752e-07 
49 1 0.464351 0.0714337 0.461774 55.845 1.92568e-07 
50 1 0.464353 -3.57671e-05 0.461645 55.845 4.12192e-07 
137 1 0.392872 0.0714088 0.3784 55.845 5.02284e-07 
138 1 0.392874 0.107181 0.420141 55.845 -4.72242e-07 
139 1 0.428578 0.107098 0.378404 55.845 4.40353e-07 
144 1 0.392888 7.24708e-06 0.378375 55.845 4.15586e-07 
145 1 0.392847 0.0356853 0.420172 55.845 -3.65985e-07 
146 1 0.428619 0.0357218 0.378386 55.845 4.30455e-07 
147 1 0.4286 0.0713907 0.420106 55.845 -7.82698e-07 
148 1 0.46431 0.0714345 0.378354 55.845 2.05701e-08 
149 1 0.464321 0.10714 0.420003 55.845 -6.62233e-07 
150 1 0.428638 9.46374e-05 0.420092 55.845 -5.04422e-07 
151 1 0.464235 -3.42915e-05 0.378303 55.845 5.29726e-07 
152 1 0.464323 0.0356916 0.420177 55.845 -8.97143e-07 
239 1 0.392781 0.0714457 0.294554 55.845 3.01857e-07 
240 1 0.392879 0.107159 0.336639 55.845 -2.51442e-07 
241 1 0.428588 0.107195 0.294567 55.845 1.18971e-07 
246 1 0.392844 1.23127e-05 0.29459 55.845 -1.85473e-07 
247 1 0.39291 0.0357765 0.336766 55.845 -2.24623e-07 
248 1 0.428569 0.035748 0.294648 55.845 9.55962e-08 
249 1 0.428592 0.0714978 0.336719 55.845 -4.91431e-07 
250 1 0.464288 0.0713997 0.29464 55.845 1.79272e-07 
251 1 0.464303 0.107117 0.336682 55.845 -3.18112e-07 
252 1 0.428588 3.88115e-05 0.33679 55.845 -2.24879e-07 
253 1 0.46427 1.56103e-05 0.294553 55.845 -1.03872e-07 
254 1 0.464295 0.0357603 0.336759 55.845 -2.3509e-07 
342 1 0.392853 0.107159 0.252334 55.845 1.74975e-07 
349 1 0.392868 0.0356983 0.252323 55.845 1.52455e-07 
351 1 0.42857 0.0714218 0.252394 55.845 3.91789e-07 
353 1 0.464299 0.107157 0.252403 55.845 3.59559e-07 
354 1 0.428627 7.49186e-05 0.252222 55.845 -1.39521e-07 
356 1 0.464229 0.035734 0.252305 55.845 1.16076e-07 
1 1 1.6602e-05 0.178546 0.4616 55.845 4.39335e-07 
2 1 0.03571 0.214279 0.461659 55.845 2.01711e-07 
4 1 0.0355933 0.1429 0.461678 55.845 5.13047e-07 
5 1 0.071442 0.17861 0.461628 55.845 6.68912e-08 
6 1 0.107147 0.21433 0.461677 55.845 2.35695e-07 
10 1 0.10705 0.142929 0.461539 55.845 2.26614e-07 
51 1 2.04367e-05 0.178541 0.378305 55.845 3.5294e-07 
52 1 1.56641e-05 0.214264 0.420015 55.845 -6.37231e-07 
53 1 0.0357614 0.214302 0.378286 55.845 1.72775e-07 
54 1 0.0357065 0.249969 0.42012 55.845 -7.78982e-07 
56 1 -3.28879e-05 0.142909 0.420012 55.845 -6.67818e-07 
57 1 0.0356487 0.142895 0.378302 55.845 6.57685e-07 
58 1 0.0357517 0.178582 0.420017 55.845 -2.97795e-07 
59 1 0.0714729 0.178597 0.378352 55.845 2.93269e-07 
60 1 0.0714792 0.214315 0.419968 55.845 -7.37992e-07 
61 1 0.107097 0.214306 0.37827 55.845 3.77435e-07 
62 1 0.107144 0.25002 0.419974 55.845 -2.25838e-07 
68 1 0.0713488 0.142887 0.419994 55.845 -3.80975e-07 
69 1 0.10717 0.142839 0.3783 55.845 3.02497e-08 
70 1 0.107205 0.178583 0.420041 55.845 -6.20848e-07 
153 1 -9.91439e-06 0.178502 0.294534 55.845 8.08087e-08 
154 1 2.43162e-05 0.214295 0.336649 55.845 -4.00262e-07 
155 1 0.0357292 0.214252 0.294434 55.845 1.3197e-07 
156 1 0.035716 0.25001 0.336752 55.845 -4.62707e-07 
158 1 2.90804e-05 0.142766 0.336738 55.845 -1.72391e-07 
159 1 0.0357721 0.142805 0.294615 55.845 4.9671e-08 
160 1 0.0357944 0.17859 0.336671 55.845 -1.86924e-07 
161 1 0.0714623 0.178562 0.294471 55.845 1.06714e-07 
162 1 0.0714344 0.214253 0.336516 55.845 -4.04545e-07 
163 1 0.107183 0.214235 0.29462 55.845 -2.31225e-08 
164 1 0.107178 0.249992 0.336708 55.845 -1.80466e-07 
170 1 0.0714887 0.142899 0.336721 55.845 -1.70798e-07 
171 1 0.107181 0.142821 0.294557 55.845 1.7469e-07 
172 1 0.107166 0.178564 0.336786 55.845 -5.98922e-07 
256 1 2.75502e-05 0.214254 0.252348 55.845 2.7013e-08 
258 1 0.0357042 0.249926 0.252369 55.845 1.70022e-07 
260 1 2.05298e-05 0.142793 0.252369 55.845 1.03548e-07 
262 1 0.0357128 0.178488 0.252335 55.845 1.67471e-07 
264 1 0.0714873 0.214271 0.252166 55.845 4.07527e-07 
266 1 0.107162 0.249982 0.252386 55.845 1.39424e-08 
272 1 0.071425 0.142843 0.252377 55.845 3.86568e-07 
274 1 0.107218 0.178513 0.252286 55.845 3.60077e-07 
11 1 0.142867 0.178591 0.461713 55.845 3.43875e-07 
12 1 0.178595 0.214403 0.46186 55.845 2.28973e-07 
17 1 0.178631 0.14291 0.461613 55.845 1.8696e-07 
18 1 0.214282 0.178635 0.461781 55.845 2.19373e-07 
19 1 0.249981 0.214347 0.461735 55.845 4.4767e-07 
24 1 0.250029 0.142855 0.461683 55.845 -1.318e-08 
71 1 0.142845 0.178568 0.378429 55.845 -1.08083e-08 
72 1 0.1429 0.214322 0.420023 55.845 -3.14882e-07 
73 1 0.178618 0.214353 0.378468 55.845 3.48892e-07 
82 1 0.142869 0.142849 0.420061 55.845 -5.13905e-07 
83 1 0.17861 0.142881 0.378447 55.845 3.70457e-07 
84 1 0.17858 0.178606 0.420046 55.845 -4.93758e-07 
85 1 0.214315 0.178623 0.378517 55.845 3.55644e-07 
86 1 0.214311 0.214371 0.420245 55.845 -5.8885e-07 
87 1 0.250048 0.214307 0.378348 55.845 6.92963e-07 
96 1 0.2143 0.142854 0.420048 55.845 -6.73691e-07 
97 1 0.250032 0.142905 0.378427 55.845 4.20467e-07 
98 1 0.249922 0.178645 0.420137 55.845 -6.0769e-07 
173 1 0.142854 0.17857 0.29464 55.845 -1.70408e-07 
174 1 0.142846 0.214209 0.336787 55.845 -3.09597e-07 
175 1 0.178623 0.214406 0.294594 55.845 1.04881e-08 
184 1 0.142922 0.142845 0.336848 55.845 -2.96904e-07 
185 1 0.178641 0.142905 0.294626 55.845 -1.98781e-07 
186 1 0.178589 0.178564 0.33682 55.845 -5.59739e-07 
187 1 0.21434 0.178608 0.294685 55.845 1.46405e-07 
188 1 0.214297 0.21441 0.336817 55.845 -4.67984e-07 
189 1 0.25001 0.214302 0.294616 55.845 1.63252e-07 
198 1 0.21433 0.142927 0.336757 55.845 -1.14632e-07 
199 1 0.250017 0.142809 0.294704 55.845 -4.31245e-09 
200 1 0.250019 0.178527 0.336751 55.845 -7.01685e-08 
276 1 0.142916 0.214247 0.252398 55.845 1.50247e-07 
286 1 0.14291 0.142904 0.252366 55.845 -1.82316e-07 
288 1 0.17858 0.178605 0.25243 55.845 -1.87886e-07 
290 1 0.214337 0.214306 0.252425 55.845 5.47912e-08 
300 1 0.214274 0.14285 0.25243 55.845 -1.43072e-07 
302 1 0.250011 0.178582 0.252331 55.845 7.00608e-08 
25 1 0.285796 0.178599 0.46166 55.845 7.64717e-08 
26 1 0.321543 0.214258 0.461726 55.845 3.16628e-07 
31 1 0.321527 0.142886 0.461741 55.845 1.82236e-07 
32 1 0.357202 0.178629 0.461745 55.845 3.60488e-07 
99 1 0.285755 0.178637 0.378465 55.845 4.24613e-07 
100 1 0.285731 0.214321 0.420199 55.845 -3.31987e-07 
101 1 0.32146 0.214339 0.378427 55.845 2.05749e-07 
110 1 0.285748 0.142889 0.42 55.845 -6.94205e-07 
111 1 0.321523 0.14292 0.378399 55.845 1.69375e-07 
112 1 0.321462 0.178573 0.420046 55.845 -6.28082e-07 
113 1 0.357205 0.178629 0.378294 55.845 6.42638e-08 
114 1 0.35713 0.214367 0.42009 55.845 -7.03211e-07 
126 1 0.357161 0.142884 0.420134 55.845 -4.45165e-07 
201 1 0.285715 0.178574 0.294615 55.845 3.72944e-07 
202 1 0.285698 0.214274 0.336884 55.845 -2.47252e-07 
203 1 0.321388 0.214293 0.294603 55.845 1.7624e-08 
212 1 0.285757 0.142854 0.336703 55.845 -9.63441e-08 
213 1 0.32147 0.142856 0.294651 55.845 -7.15322e-08 
214 1 0.321434 0.178626 0.336824 55.845 -2.48785e-07 
215 1 0.357143 0.178579 0.294459 55.845 -3.07868e-07 
216 1 0.357168 0.21431 0.336784 55.845 -5.55648e-07 