ITEM: TIMESTEP
5600
ITEM: NUMBER OF ATOMS
5880
ITEM: BOX BOUNDS pp pp ff
-27.983 27.983
-27.983 27.983
0 34.092
ITEM: ATOMS id type xs ys zs mass q 
259 1 2.74632e-05 0.107153 0.209363 55.845 -2.15062e-08 
267 1 -4.59749e-05 0.0356105 0.209262 55.845 -1.23477e-07 
269 1 0.0356753 0.0713349 0.209379 55.845 -4.21784e-07 
271 1 0.071357 0.107084 0.209301 55.845 -3.53807e-07 
279 1 0.035669 -2.71313e-05 0.209316 55.845 -3.69499e-07 
281 1 0.071334 0.0357056 0.20922 55.845 -4.45714e-07 
283 1 0.107136 0.0713896 0.209142 55.845 -3.77976e-07 
293 1 0.107125 5.40381e-05 0.209365 55.845 -4.77361e-07 
361 1 3.24788e-06 0.10713 0.12475 55.845 4.3124e-07 
369 1 -7.65578e-06 0.0357642 0.124592 55.845 3.17836e-07 
370 1 -1.27497e-05 0.0713435 0.167075 55.845 -2.58429e-07 
371 1 0.0356632 0.0714251 0.12471 55.845 3.83152e-07 
372 1 0.0357166 0.107172 0.167186 55.845 -2.32085e-07 
373 1 0.0713949 0.107162 0.124729 55.845 3.08385e-07 
380 1 -3.20149e-05 -1.82838e-05 0.167117 55.845 -1.59436e-07 
381 1 0.0357315 -5.58259e-05 0.124659 55.845 1.76933e-07 
382 1 0.0356668 0.0356348 0.167119 55.845 -1.75059e-07 
383 1 0.0714202 0.0357658 0.124804 55.845 2.25814e-07 
384 1 0.0712949 0.0714278 0.167375 55.845 8.54162e-12 
385 1 0.107058 0.0713915 0.124834 55.845 2.07889e-07 
386 1 0.107107 0.107142 0.167213 55.845 3.92894e-08 
394 1 0.0714092 -6.44055e-05 0.167357 55.845 -4.99288e-08 
395 1 0.107157 -2.66071e-05 0.124754 55.845 2.59872e-07 
396 1 0.107119 0.0355867 0.167335 55.845 -6.16674e-09 
463 1 0 0.107143 0.0416667 55.845 -6.32914e-08 
471 1 0 0.0357143 0.0416667 55.845 -3.07088e-07 
472 1 -4.93311e-05 0.0714443 0.082769 55.845 8.48075e-08 
473 1 0.0357143 0.0714286 0.0416667 55.845 -6.88374e-08 
474 1 0.0356508 0.107072 0.0827527 55.845 -3.9655e-07 
475 1 0.0714286 0.107143 0.0416667 55.845 -1.08251e-07 
482 1 2.0677e-05 -6.19993e-06 0.0827547 55.845 -4.08776e-07 
483 1 0.0357143 0 0.0416667 55.845 -3.99348e-07 
484 1 0.0357774 0.0356563 0.0827677 55.845 -1.75294e-07 
485 1 0.0714286 0.0357143 0.0416667 55.845 -2.75659e-07 
486 1 0.0713631 0.0714678 0.0827565 55.845 -5.79449e-07 
487 1 0.107143 0.0714286 0.0416667 55.845 -3.57143e-07 
488 1 0.10703 0.107172 0.0827575 55.845 -5.43956e-07 
496 1 0.0714499 -3.55376e-06 0.0827618 55.845 -1.51606e-07 
497 1 0.107143 0 0.0416667 55.845 -1.49794e-07 
498 1 0.107162 0.0357422 0.0827875 55.845 -3.65387e-07 
567 1 0 0.0714286 0 55.845 4.88979e-07 
568 1 0.0357143 0.107143 0 55.845 9.19321e-09 
572 1 0 0 0 55.845 -1.55738e-08 
573 1 0.0357143 0.0357143 0 55.845 1.92386e-07 
574 1 0.0714286 0.0714286 0 55.845 -1.17801e-07 
575 1 0.107143 0.107143 0 55.845 -4.23046e-08 
579 1 0.0714286 0 0 55.845 2.05628e-07 
580 1 0.107143 0.0357143 0 55.845 4.86745e-08 
285 1 0.142797 0.107053 0.209076 55.845 -4.23273e-07 
295 1 0.142865 0.0357013 0.209201 55.845 -3.311e-07 
297 1 0.1786 0.0715319 0.209191 55.845 -4.59725e-07 
299 1 0.214323 0.107113 0.209323 55.845 -3.98153e-07 
307 1 0.178554 -9.31471e-05 0.209267 55.845 -4.36126e-07 
309 1 0.214228 0.035688 0.209209 55.845 -5.07367e-07 
311 1 0.249985 0.071436 0.209105 55.845 -5.13366e-07 
387 1 0.142779 0.107051 0.12462 55.845 2.91725e-07 
397 1 0.142871 0.0356415 0.124777 55.845 1.4904e-07 
398 1 0.142889 0.071305 0.167349 55.845 1.06947e-07 
399 1 0.17858 0.0714223 0.124622 55.845 2.56883e-07 
400 1 0.178585 0.107214 0.167108 55.845 -1.18866e-07 
401 1 0.214318 0.107111 0.124637 55.845 2.99549e-07 
408 1 0.142914 -0.0001082 0.16729 55.845 7.1182e-08 
409 1 0.178524 -4.43776e-05 0.124822 55.845 1.01867e-07 
410 1 0.178615 0.0356749 0.167159 55.845 5.91318e-08 
411 1 0.214381 0.0356414 0.124655 55.845 2.64862e-07 
412 1 0.214224 0.0713943 0.167141 55.845 -1.72119e-07 
413 1 0.249945 0.0714365 0.124685 55.845 4.89652e-07 
414 1 0.250064 0.107257 0.167297 55.845 -4.89616e-07 
424 1 0.214224 -4.88731e-05 0.167282 55.845 7.53569e-08 
426 1 0.24991 0.0356631 0.167128 55.845 -2.35367e-07 
489 1 0.142857 0.107143 0.0416667 55.845 -2.31752e-07 
499 1 0.142857 0.0357143 0.0416667 55.845 -4.78939e-07 
500 1 0.142789 0.071341 0.0828544 55.845 -4.66941e-07 
501 1 0.178571 0.0714286 0.0416667 55.845 -3.73676e-07 
502 1 0.178561 0.107086 0.0828598 55.845 -9.90814e-08 
503 1 0.214286 0.107143 0.0416667 55.845 -2.28466e-07 
510 1 0.142853 -4.5353e-05 0.0828289 55.845 -1.24953e-08 
511 1 0.178571 0 0.0416667 55.845 -4.25006e-07 
512 1 0.17854 0.0356985 0.0828269 55.845 -1.40214e-07 
513 1 0.214286 0.0357143 0.0416667 55.845 -1.8925e-07 
514 1 0.214244 0.0714151 0.0828199 55.845 -2.32908e-07 
515 1 0.25 0.0714286 0.0416667 55.845 1.28266e-07 
516 1 0.249973 0.107156 0.082815 55.845 -5.16891e-07 
526 1 0.214285 -9.28669e-05 0.0829924 55.845 -1.80557e-07 
528 1 0.250027 0.0357129 0.0826465 55.845 -3.56157e-07 
581 1 0.142857 0.0714286 0 55.845 7.80684e-09 
582 1 0.178571 0.107143 0 55.845 2.95685e-07 
586 1 0.142857 0 0 55.845 2.43692e-07 
587 1 0.178571 0.0357143 0 55.845 1.65388e-07 
588 1 0.214286 0.0714286 0 55.845 3.47493e-07 
589 1 0.25 0.107143 0 55.845 1.90981e-07 
594 1 0.214286 0 0 55.845 8.62033e-08 
595 1 0.25 0.0357143 0 55.845 2.54695e-07 
313 1 0.285653 0.107195 0.209154 55.845 6.792e-08 
323 1 0.249998 -3.68867e-05 0.209233 55.845 -5.3112e-07 
325 1 0.285679 0.0357163 0.209058 55.845 -5.18607e-07 
327 1 0.321391 0.0715064 0.209113 55.845 -1.57553e-07 
329 1 0.357104 0.107122 0.209111 55.845 2.37818e-07 
337 1 0.32143 -4.40384e-05 0.20928 55.845 -4.90091e-07 
339 1 0.35716 0.0357149 0.209184 55.845 -1.51219e-07 
415 1 0.285668 0.107181 0.124602 55.845 5.00232e-07 
425 1 0.250072 -2.96782e-05 0.124803 55.845 7.48283e-08 
427 1 0.285661 0.0356672 0.124724 55.845 4.14521e-07 
428 1 0.285693 0.0714208 0.167117 55.845 -5.01403e-07 
429 1 0.321462 0.0712952 0.124553 55.845 5.54673e-07 
430 1 0.321377 0.107085 0.16721 55.845 -6.96988e-07 
431 1 0.357136 0.107102 0.124554 55.845 4.67105e-07 
439 1 0.321441 -7.63834e-06 0.124705 55.845 1.84366e-07 
440 1 0.321348 0.0357169 0.167206 55.845 -5.62464e-07 
441 1 0.357099 0.035625 0.124712 55.845 3.70568e-07 
442 1 0.357095 0.0714061 0.167146 55.845 -6.47083e-07 
517 1 0.285714 0.107143 0.0416667 55.845 -9.58427e-08 
527 1 0.25 0 0.0416667 55.845 -2.42151e-07 
529 1 0.285714 0.0357143 0.0416667 55.845 2.51972e-07 
530 1 0.285708 0.0714804 0.0828773 55.845 -5.4504e-07 
531 1 0.321429 0.0714286 0.0416667 55.845 7.43741e-08 
532 1 0.321417 0.107149 0.0827014 55.845 -4.28054e-07 
533 1 0.357143 0.107143 0.0416667 55.845 -2.3156e-07 
603 1 0.357143 0.0714286 0 55.845 1.39325e-07 
541 1 0.321429 0 0.0416667 55.845 -3.26984e-08 
542 1 0.321459 0.0356096 0.082715 55.845 -5.66068e-07 
543 1 0.357143 0.0357143 0.0416667 55.845 -8.08805e-08 
544 1 0.357173 0.0713386 0.0827397 55.845 -6.67485e-07 
602 1 0.321429 0.0357143 0 55.845 1.84975e-07 
596 1 0.285714 0.0714286 0 55.845 2.91469e-07 
597 1 0.321429 0.107143 0 55.845 2.20128e-07 
612 1 0.464286 0.0357143 0 55.845 -7.26442e-09 
611 1 0.428571 0 0 55.845 1.98193e-07 
610 1 0.464286 0.107143 0 55.845 -2.40548e-10 
609 1 0.428571 0.0714286 0 55.845 1.25342e-08 
608 1 0.392857 0.0357143 0 55.845 7.79484e-08 
341 1 0.392814 0.0715003 0.209232 55.845 8.53612e-08 
343 1 0.428511 0.107137 0.209271 55.845 2.7832e-08 
348 1 0.392733 2.4811e-05 0.209225 55.845 -3.74312e-07 
350 1 0.428481 0.0358058 0.209098 55.845 -1.50853e-07 
352 1 0.464266 0.0714934 0.20916 55.845 -1.8774e-07 
355 1 0.464212 0.00010127 0.209186 55.845 -5.54664e-07 
443 1 0.392839 0.0713994 0.124812 55.845 4.0731e-07 
444 1 0.392842 0.107103 0.167022 55.845 -6.95336e-07 
445 1 0.428581 0.107227 0.124801 55.845 3.69423e-07 
604 1 0.392857 0.107143 0 55.845 2.6229e-07 
450 1 0.392878 6.92797e-05 0.124844 55.845 4.34639e-07 
451 1 0.39279 0.035805 0.167334 55.845 -4.24518e-07 
452 1 0.428532 0.0357817 0.124539 55.845 5.07974e-07 
453 1 0.428546 0.0715539 0.167344 55.845 -3.82074e-07 
454 1 0.464316 0.071359 0.124804 55.845 5.70015e-07 
455 1 0.464312 0.107141 0.167288 55.845 -5.39413e-07 
456 1 0.428541 -1.36699e-06 0.167272 55.845 -1.94723e-07 
457 1 0.464244 -1.84735e-05 0.124742 55.845 4.6383e-07 
458 1 0.464245 0.035722 0.167356 55.845 -1.54812e-07 
545 1 0.392857 0.0714286 0.0416667 55.845 -2.85242e-07 
546 1 0.392861 0.107061 0.0827134 55.845 -2.82085e-07 
547 1 0.428571 0.107143 0.0416667 55.845 -2.60306e-07 
552 1 0.392857 0 0.0416667 55.845 -1.81946e-08 
553 1 0.392837 0.0357331 0.0826278 55.845 -7.49155e-07 
554 1 0.428571 0.0357143 0.0416667 55.845 -1.13149e-07 
555 1 0.428646 0.0714868 0.0828584 55.845 -8.18799e-07 
556 1 0.464286 0.0714286 0.0416667 55.845 -4.00444e-09 
557 1 0.464264 0.10721 0.0828478 55.845 -5.9733e-07 
558 1 0.428535 1.53944e-05 0.0827695 55.845 -4.8572e-07 
559 1 0.464286 0 0.0416667 55.845 -4.66345e-08 
560 1 0.46423 0.0357041 0.082789 55.845 -6.76987e-07 
255 1 -1.36373e-05 0.17849 0.209185 55.845 2.42726e-07 
257 1 0.0357451 0.214328 0.20914 55.845 -3.68372e-07 
261 1 0.0356767 0.142894 0.209231 55.845 -8.93153e-08 
263 1 0.0714204 0.178576 0.209015 55.845 -5.78426e-07 
265 1 0.107157 0.214324 0.20912 55.845 -8.17634e-07 
273 1 0.107155 0.14284 0.209022 55.845 -6.44613e-07 
357 1 -8.59068e-05 0.178546 0.124654 55.845 1.75396e-07 
358 1 9.10567e-06 0.214265 0.167322 55.845 -3.31474e-07 
359 1 0.0357151 0.214329 0.124749 55.845 2.4367e-07 
360 1 0.0357314 0.250032 0.167193 55.845 -5.03292e-08 
362 1 -5.19637e-05 0.142863 0.16721 55.845 -4.64078e-07 
363 1 0.0356676 0.142919 0.124775 55.845 2.84557e-07 
364 1 0.0356843 0.1786 0.167246 55.845 -2.03854e-07 
365 1 0.0713972 0.178569 0.124793 55.845 3.07747e-07 
366 1 0.0714243 0.214253 0.167184 55.845 8.13447e-09 
367 1 0.107203 0.214277 0.124611 55.845 1.34557e-07 
368 1 0.107183 0.25006 0.167321 55.845 5.67471e-08 
374 1 0.0713454 0.142798 0.167377 55.845 -5.56909e-08 
375 1 0.107128 0.142855 0.124745 55.845 4.24067e-07 
376 1 0.107169 0.178569 0.167251 55.845 2.05396e-08 
459 1 0 0.178571 0.0416667 55.845 -5.8572e-07 
460 1 -8.96389e-05 0.21424 0.082797 55.845 -2.37654e-07 
461 1 0.0357143 0.214286 0.0416667 55.845 -1.13892e-07 
462 1 0.0356903 0.250002 0.0827231 55.845 -8.25143e-08 
464 1 -4.94599e-06 0.142852 0.0828323 55.845 -3.49738e-07 
465 1 0.0357143 0.142857 0.0416667 55.845 -2.4098e-07 
466 1 0.0356559 0.178608 0.0828894 55.845 -4.45741e-07 
467 1 0.0714286 0.178571 0.0416667 55.845 1.33748e-07 
468 1 0.0714155 0.214288 0.0827148 55.845 -1.54633e-07 
469 1 0.107143 0.214286 0.0416667 55.845 -6.09158e-08 
470 1 0.107214 0.25009 0.0828882 55.845 -3.73894e-07 
476 1 0.0713573 0.14285 0.0829476 55.845 -5.00628e-07 
477 1 0.107143 0.142857 0.0416667 55.845 1.16594e-07 
478 1 0.107208 0.178546 0.0828236 55.845 -1.38112e-07 
561 1 0 0.214286 0 55.845 1.38258e-07 
562 1 0.0357143 0.25 0 55.845 4.8826e-07 
563 1 0 0.142857 0 55.845 5.41629e-08 
564 1 0.0357143 0.178571 0 55.845 5.45402e-08 
565 1 0.0714286 0.214286 0 55.845 3.73952e-07 
566 1 0.107143 0.25 0 55.845 1.36367e-07 
569 1 0.0714286 0.142857 0 55.845 -2.96196e-08 
570 1 0.107143 0.178571 0 55.845 3.82578e-07 
275 1 0.142888 0.178455 0.2093 55.845 -6.61354e-07 
277 1 0.178592 0.214296 0.209131 55.845 -4.97035e-07 
287 1 0.178528 0.142798 0.20922 55.845 -4.86479e-07 
289 1 0.214216 0.178561 0.209157 55.845 -3.05177e-07 
291 1 0.249921 0.214272 0.209262 55.845 -5.70677e-07 
301 1 0.250001 0.142892 0.209131 55.845 -2.6778e-08 
377 1 0.142938 0.17858 0.124731 55.845 2.68009e-07 
378 1 0.142929 0.214213 0.167363 55.845 -3.01256e-08 
379 1 0.178583 0.214246 0.124692 55.845 5.41975e-08 
388 1 0.142778 0.142819 0.167251 55.845 -5.08426e-08 
389 1 0.178525 0.143005 0.124726 55.845 3.15985e-07 
390 1 0.178593 0.178545 0.167385 55.845 -1.57438e-07 
391 1 0.214308 0.178641 0.12483 55.845 2.3806e-07 
392 1 0.21428 0.214326 0.167153 55.845 -1.15951e-07 
393 1 0.249897 0.214281 0.124735 55.845 4.79416e-07 
402 1 0.214336 0.142831 0.167359 55.845 -3.31011e-07 
403 1 0.249983 0.14293 0.124807 55.845 3.81307e-07 
404 1 0.249981 0.178688 0.167146 55.845 -3.01956e-07 
479 1 0.142857 0.178571 0.0416667 55.845 -3.24724e-08 
480 1 0.142863 0.214258 0.0826165 55.845 -2.72645e-07 
481 1 0.178571 0.214286 0.0416667 55.845 -4.08604e-07 
490 1 0.1428 0.142814 0.082892 55.845 -4.52802e-08 
491 1 0.178571 0.142857 0.0416667 55.845 -2.35683e-07 
492 1 0.178589 0.178635 0.0826845 55.845 -2.30823e-07 
493 1 0.214286 0.178571 0.0416667 55.845 -3.60535e-07 
494 1 0.214337 0.214294 0.0827854 55.845 -4.9625e-07 
495 1 0.25 0.214286 0.0416667 55.845 1.25158e-07 
504 1 0.214226 0.142873 0.0828249 55.845 -3.43975e-07 
505 1 0.25 0.142857 0.0416667 55.845 -4.11036e-07 
506 1 0.250004 0.178561 0.0827166 55.845 -7.94244e-07 
571 1 0.142857 0.214286 0 55.845 1.6454e-07 
576 1 0.142857 0.142857 0 55.845 3.77289e-07 
577 1 0.178571 0.178571 0 55.845 2.37832e-07 
578 1 0.214286 0.214286 0 55.845 4.95951e-08 
583 1 0.214286 0.142857 0 55.845 1.2922e-07 
584 1 0.25 0.178571 0 55.845 -1.05094e-07 
303 1 0.285691 0.178537 0.209131 55.845 -5.85427e-08 
305 1 0.321379 0.214341 0.209264 55.845 -3.54198e-07 
315 1 0.321372 0.142904 0.209162 55.845 2.33665e-07 
317 1 0.357075 0.178508 0.209304 55.845 -1.37793e-07 
405 1 0.285702 0.178545 0.124793 55.845 5.35795e-07 
406 1 0.285664 0.214287 0.167246 55.845 -1.78882e-07 
407 1 0.321443 0.214361 0.124791 55.845 3.36707e-07 
416 1 0.285644 0.14286 0.167126 55.845 -4.82121e-07 
417 1 0.321392 0.14288 0.124719 55.845 5.15694e-07 
418 1 0.32132 0.178596 0.167243 55.845 -4.22408e-07 
419 1 0.357059 0.178585 0.124771 55.845 3.49623e-07 
420 1 0.357158 0.214272 0.167298 55.845 -1.48699e-07 
432 1 0.357143 0.142857 0.167165 55.845 -6.70206e-07 
507 1 0.285714 0.178571 0.0416667 55.845 -1.26604e-07 
508 1 0.285633 0.21435 0.0829152 55.845 -6.1109e-07 
509 1 0.321429 0.214286 0.0416667 55.845 -8.1326e-08 
518 1 0.285723 0.142776 0.0828214 55.845 -7.47707e-07 
519 1 0.321429 0.142857 0.0416667 55.845 -1.94386e-07 
520 1 0.321404 0.178597 0.0828423 55.845 -4.956e-07 
521 1 0.357143 0.178571 0.0416667 55.845 -1.71356e-07 
522 1 0.357127 0.214256 0.0828048 55.845 -3.94291e-07 
534 1 0.357142 0.142884 0.0827544 55.845 -4.38471e-08 
585 1 0.285714 0.214286 0 55.845 1.04638e-07 
590 1 0.285714 0.142857 0 55.845 -4.48757e-08 
591 1 0.321429 0.178571 0 55.845 1.66543e-07 
592 1 0.357143 0.214286 0 55.845 1.17911e-07 
598 1 0.357143 0.142857 0 55.845 5.11233e-07 
319 1 0.392796 0.21427 0.209266 55.845 -4.86956e-07 
321 1 0.428493 0.249964 0.209296 55.845 -6.88081e-07 
331 1 0.392762 0.14288 0.209122 55.845 -5.70359e-08 
333 1 0.428557 0.178504 0.208984 55.845 -5.10398e-07 
335 1 0.464289 0.214329 0.209188 55.845 -6.80617e-07 
345 1 0.464165 0.142847 0.209249 55.845 -9.59556e-08 
606 1 0.464286 0.178571 0 55.845 2.47311e-07 
421 1 0.392851 0.214421 0.124713 55.845 4.31125e-08 
422 1 0.392849 0.250076 0.167371 55.845 2.98412e-08 
423 1 0.428522 0.250054 0.124859 55.845 -3.21463e-08 
433 1 0.392921 0.142829 0.124623 55.845 3.45023e-07 
434 1 0.392819 0.178679 0.167287 55.845 -3.80361e-07 
435 1 0.42866 0.178504 0.124674 55.845 2.73167e-07 
436 1 0.428579 0.214255 0.167261 55.845 -1.41117e-08 
437 1 0.464294 0.214338 0.12475 55.845 2.19956e-07 
605 1 0.428571 0.142857 0 55.845 3.49853e-07 
446 1 0.428575 0.142848 0.167205 55.845 -5.04816e-07 
447 1 0.464212 0.142927 0.124829 55.845 2.70054e-07 
448 1 0.464371 0.178631 0.167253 55.845 -2.65544e-07 
523 1 0.392857 0.214286 0.0416667 55.845 -2.99092e-07 
524 1 0.392768 0.250044 0.0827668 55.845 -3.95352e-07 
525 1 0.428571 0.25 0.0416667 55.845 -2.1805e-07 
535 1 0.392857 0.142857 0.0416667 55.845 -1.51645e-07 
536 1 0.392828 0.178626 0.08291 55.845 -1.50318e-08 
537 1 0.428571 0.178571 0.0416667 55.845 4.16604e-10 
538 1 0.42861 0.214264 0.0828411 55.845 -2.30172e-07 
539 1 0.464286 0.214286 0.0416667 55.845 1.37053e-07 
548 1 0.428524 0.142915 0.0827363 55.845 -2.32752e-07 
549 1 0.464286 0.142857 0.0416667 55.845 -2.32578e-07 
550 1 0.464372 0.178618 0.0828406 55.845 -4.63522e-07 
593 1 0.392857 0.25 0 55.845 -1.11722e-08 
599 1 0.392857 0.178571 0 55.845 5.36211e-07 
600 1 0.428571 0.214286 0 55.845 4.14182e-07 
3 1 -5.9435e-05 0.107157 0.458405 55.845 1.67052e-06 
7 1 -3.64709e-05 0.0356677 0.458626 55.845 1.58141e-06 
8 1 0.0356552 0.0714416 0.458598 55.845 1.53146e-06 
9 1 0.0713546 0.107179 0.458377 55.845 1.29561e-06 
13 1 0.0356305 3.12571e-05 0.458455 55.845 1.32955e-06 
14 1 0.0713703 0.0357805 0.458611 55.845 1.19182e-06 
15 1 0.107112 0.0713813 0.458561 55.845 1.13248e-06 
20 1 0.107243 -7.50872e-05 0.45862 55.845 1.33951e-06 
55 1 -0.00014303 0.10716 0.374144 55.845 4.52268e-07 
63 1 -3.09226e-05 0.0356681 0.374147 55.845 4.10286e-07 
64 1 -8.11543e-05 0.071372 0.41633 55.845 -9.6802e-07 
65 1 0.0356506 0.071406 0.37428 55.845 5.21826e-07 
66 1 0.0357027 0.107159 0.416182 55.845 -1.08246e-06 
67 1 0.0714596 0.107147 0.374124 55.845 7.25972e-07 
74 1 -7.52464e-05 -8.64281e-05 0.416264 55.845 -9.33154e-07 
75 1 0.0357074 -4.08204e-05 0.37412 55.845 5.17676e-07 
76 1 0.0356826 0.0356956 0.416406 55.845 -9.69943e-07 
77 1 0.0714119 0.035724 0.374166 55.845 4.42106e-07 
78 1 0.071388 0.0713791 0.416384 55.845 -1.11601e-06 
79 1 0.107144 0.0713744 0.374202 55.845 4.76913e-07 
80 1 0.107233 0.107069 0.416237 55.845 -9.12668e-07 
88 1 0.0713594 -3.69682e-05 0.41647 55.845 -1.09022e-06 
89 1 0.107164 4.50264e-06 0.37419 55.845 1.78066e-07 
90 1 0.107159 0.035672 0.416357 55.845 -9.23076e-07 
157 1 2.27564e-05 0.107004 0.291454 55.845 2.00687e-07 
165 1 -9.54545e-05 0.0356008 0.291519 55.845 2.12655e-07 
166 1 5.58102e-05 0.0714019 0.332637 55.845 -5.88501e-07 
167 1 0.0356853 0.071353 0.291468 55.845 2.17898e-07 
168 1 0.0356874 0.107163 0.332534 55.845 -4.40025e-07 
169 1 0.0713721 0.107089 0.291393 55.845 4.53327e-07 
176 1 -1.09283e-05 -5.48077e-05 0.332647 55.845 -5.70659e-08 
177 1 0.035643 -3.74652e-05 0.291387 55.845 4.50849e-07 
178 1 0.0356942 0.0356613 0.332784 55.845 -5.51992e-07 
179 1 0.071456 0.0357057 0.2915 55.845 2.12956e-07 
180 1 0.0713209 0.0714927 0.332721 55.845 -3.1671e-07 
181 1 0.10709 0.0714094 0.291484 55.845 4.16782e-07 
182 1 0.10715 0.107051 0.332485 55.845 -3.56447e-08 
190 1 0.071423 -6.35546e-05 0.33261 55.845 -5.42375e-07 
191 1 0.107177 1.73445e-05 0.291334 55.845 1.2026e-08 
192 1 0.107101 0.0357638 0.332477 55.845 -2.50479e-07 
268 1 -1.3474e-05 0.07129 0.25036 55.845 -3.49758e-07 
270 1 0.035719 0.10714 0.250363 55.845 2.46555e-07 
278 1 1.47279e-05 -4.42452e-05 0.250357 55.845 2.07613e-07 
280 1 0.0356781 0.0356715 0.250494 55.845 2.04658e-08 
282 1 0.0713927 0.0713752 0.250377 55.845 4.89211e-07 
284 1 0.107044 0.107093 0.250338 55.845 7.83111e-07 
292 1 0.0713295 -4.44586e-06 0.25032 55.845 3.14754e-08 
294 1 0.107096 0.0357242 0.250276 55.845 4.91189e-07 
16 1 0.142784 0.107155 0.458487 55.845 1.08042e-06 
21 1 0.142832 0.0357437 0.458566 55.845 1.09842e-06 
22 1 0.178536 0.0714065 0.458547 55.845 1.04198e-06 
23 1 0.214238 0.107171 0.458809 55.845 9.77799e-07 
27 1 0.178556 -4.08556e-05 0.458684 55.845 1.15978e-06 
28 1 0.214262 0.0357669 0.458495 55.845 1.04667e-06 
29 1 0.25008 0.0714601 0.458529 55.845 1.11537e-06 
81 1 0.142865 0.107126 0.374084 55.845 2.05315e-08 
91 1 0.142822 0.0356951 0.374353 55.845 1.87219e-07 
92 1 0.142813 0.0713946 0.416473 55.845 -7.25377e-07 
93 1 0.17858 0.0714857 0.374242 55.845 -7.46527e-08 
94 1 0.178481 0.107194 0.416452 55.845 -5.80671e-07 
95 1 0.214259 0.107122 0.374173 55.845 -2.06045e-07 
102 1 0.142846 2.73783e-05 0.416346 55.845 -8.38956e-07 
103 1 0.178564 3.48635e-05 0.374297 55.845 7.14406e-08 
104 1 0.178584 0.0357844 0.416407 55.845 -6.42647e-07 
105 1 0.214182 0.0357286 0.374175 55.845 9.29235e-10 
106 1 0.214221 0.071463 0.416342 55.845 -6.49046e-07 
107 1 0.249964 0.0713898 0.374216 55.845 1.22851e-07 
108 1 0.249956 0.107142 0.41631 55.845 -7.41278e-07 
118 1 0.214282 4.18014e-05 0.416382 55.845 -6.96978e-07 
120 1 0.249854 0.0356921 0.416398 55.845 -7.19671e-07 
183 1 0.142822 0.107084 0.291416 55.845 -4.02543e-08 
193 1 0.142758 0.0356493 0.291463 55.845 1.26792e-07 
194 1 0.142933 0.0713767 0.332561 55.845 2.81761e-07 
195 1 0.178527 0.0714535 0.291305 55.845 1.5077e-08 
196 1 0.178597 0.107132 0.332623 55.845 7.38943e-08 
197 1 0.214188 0.107192 0.291446 55.845 -5.77006e-08 
204 1 0.142869 -5.05733e-05 0.332543 55.845 -1.71289e-07 
205 1 0.178556 -3.21543e-05 0.291335 55.845 1.05355e-07 
206 1 0.178485 0.035679 0.332625 55.845 1.40336e-07 
207 1 0.214253 0.0356449 0.291322 55.845 -7.855e-08 
208 1 0.214263 0.0714036 0.332469 55.845 -9.14252e-10 
209 1 0.249974 0.0714481 0.291332 55.845 5.4451e-08 
210 1 0.249948 0.107111 0.332608 55.845 -1.27661e-07 
220 1 0.214219 -3.76567e-05 0.332556 55.845 1.86643e-07 
222 1 0.249943 0.0356757 0.332482 55.845 -1.89698e-07 
296 1 0.142751 0.0714315 0.250276 55.845 7.37526e-07 
298 1 0.178523 0.107166 0.250314 55.845 3.48102e-07 
306 1 0.142815 3.1336e-06 0.250353 55.845 3.22732e-07 
308 1 0.178501 0.0357666 0.250298 55.845 5.85231e-07 
310 1 0.214289 0.0713497 0.250509 55.845 2.35801e-07 
312 1 0.249936 0.107249 0.250337 55.845 1.83207e-07 
322 1 0.214325 -1.37924e-05 0.250247 55.845 6.92192e-07 
324 1 0.249944 0.0356393 0.250152 55.845 3.16112e-07 
30 1 0.285769 0.10715 0.458418 55.845 1.15452e-06 
35 1 0.24989 5.10428e-05 0.458676 55.845 9.45322e-07 
36 1 0.28559 0.0358129 0.458514 55.845 1.08658e-06 
37 1 0.321407 0.0713733 0.458439 55.845 1.28967e-06 
38 1 0.357113 0.107108 0.458537 55.845 1.40835e-06 
42 1 0.321354 8.52407e-06 0.458608 55.845 1.04784e-06 
43 1 0.357092 0.0357114 0.45834 55.845 1.065e-06 
109 1 0.285625 0.107141 0.37417 55.845 4.15276e-07 
119 1 0.249943 -1.43753e-05 0.374219 55.845 2.25935e-07 
121 1 0.285657 0.0357135 0.374088 55.845 3.95445e-07 
122 1 0.285642 0.0714158 0.416329 55.845 -1.06837e-06 
123 1 0.321385 0.0714987 0.37424 55.845 6.1084e-07 
124 1 0.321406 0.107206 0.416191 55.845 -1.11844e-06 
125 1 0.357094 0.107154 0.374111 55.845 4.295e-07 
133 1 0.321355 6.49942e-05 0.37416 55.845 3.37166e-07 
134 1 0.32136 0.0357112 0.416264 55.845 -1.0138e-06 
135 1 0.357114 0.0358097 0.374118 55.845 4.4527e-07 
136 1 0.357101 0.07145 0.41622 55.845 -1.15594e-06 
211 1 0.285703 0.107058 0.291512 55.845 5.86337e-07 
221 1 0.250026 -7.57147e-06 0.29145 55.845 8.34203e-08 
223 1 0.285697 0.035733 0.291463 55.845 2.55098e-08 
224 1 0.285714 0.0713504 0.332728 55.845 -5.0097e-07 
225 1 0.321373 0.0714037 0.291404 55.845 5.67709e-07 
226 1 0.321351 0.107112 0.33255 55.845 -4.37457e-07 
227 1 0.357097 0.107106 0.291352 55.845 6.44589e-07 
235 1 0.321449 1.04812e-05 0.291516 55.845 1.62961e-07 
236 1 0.321387 0.0356631 0.332708 55.845 -3.51917e-07 
237 1 0.357139 0.035756 0.291431 55.845 3.68994e-07 
238 1 0.357095 0.0714497 0.332738 55.845 -2.2928e-07 
326 1 0.285721 0.0713677 0.250248 55.845 -8.34936e-08 
328 1 0.321431 0.107157 0.250277 55.845 -1.89542e-07 
338 1 0.321462 0.0356653 0.250276 55.845 7.71107e-08 
340 1 0.357097 0.0713673 0.250264 55.845 -2.16818e-08 
44 1 0.392809 0.0714787 0.458459 55.845 9.69565e-07 
45 1 0.42848 0.107222 0.458497 55.845 1.02256e-06 
47 1 0.392805 7.38665e-05 0.458488 55.845 8.09366e-07 
48 1 0.428598 0.0358098 0.458534 55.845 6.08527e-07 
49 1 0.464253 0.0715377 0.458565 55.845 8.12211e-07 
50 1 0.464327 1.96698e-05 0.458412 55.845 3.70941e-07 
137 1 0.392824 0.0715566 0.374104 55.845 2.8626e-07 
138 1 0.392783 0.10721 0.416344 55.845 -9.34091e-07 
139 1 0.428634 0.107213 0.374242 55.845 1.2039e-07 
144 1 0.392968 2.81261e-05 0.374292 55.845 -1.9152e-07 
145 1 0.392857 0.0358325 0.41627 55.845 -7.50214e-07 
146 1 0.428573 0.0358303 0.374244 55.845 -1.0054e-07 
147 1 0.428542 0.0715195 0.416485 55.845 -7.42773e-07 
148 1 0.464324 0.0714357 0.374301 55.845 -1.3678e-08 
149 1 0.46418 0.107265 0.416261 55.845 -9.08315e-07 
150 1 0.428583 0.000107654 0.416441 55.845 -3.64175e-07 
151 1 0.464198 8.85068e-05 0.374171 55.845 -5.89824e-07 
152 1 0.464359 0.0357751 0.416159 55.845 -4.367e-07 
239 1 0.39293 0.071453 0.291408 55.845 5.94812e-07 
240 1 0.392811 0.107213 0.332584 55.845 -2.34328e-07 
241 1 0.428544 0.107154 0.291538 55.845 4.7822e-07 
246 1 0.392795 3.25309e-05 0.291563 55.845 -1.18542e-07 
247 1 0.392857 0.0358057 0.332583 55.845 8.14581e-08 
248 1 0.428584 0.0357694 0.291445 55.845 1.48452e-07 
249 1 0.428597 0.0715403 0.332694 55.845 8.61926e-08 
250 1 0.464258 0.0714724 0.291545 55.845 2.06784e-07 
251 1 0.464301 0.107142 0.332607 55.845 -1.28863e-07 
252 1 0.428558 4.93722e-07 0.332584 55.845 2.67352e-07 
253 1 0.46422 4.84899e-05 0.291198 55.845 -2.93055e-07 
254 1 0.464274 0.0357096 0.332675 55.845 2.4007e-07 
342 1 0.392861 0.10718 0.250236 55.845 -1.66397e-07 
349 1 0.392843 0.0356617 0.250406 55.845 3.1081e-07 
351 1 0.42856 0.0714705 0.250285 55.845 4.78814e-07 
353 1 0.464267 0.107199 0.250353 55.845 3.23458e-07 
354 1 0.428511 3.79479e-05 0.250191 55.845 5.54072e-07 
356 1 0.46427 0.0358438 0.250193 55.845 7.14766e-07 
1 1 -2.86207e-06 0.178568 0.45839 55.845 1.1708e-06 
2 1 0.0357418 0.214274 0.458364 55.845 1.04318e-06 
4 1 0.0356396 0.142829 0.458565 55.845 1.3059e-06 
5 1 0.071517 0.178597 0.458375 55.845 1.1938e-06 
6 1 0.107139 0.214329 0.458499 55.845 8.29754e-07 
10 1 0.107169 0.142758 0.458436 55.845 1.22701e-06 
51 1 1.18885e-05 0.178554 0.374064 55.845 4.36038e-07 
52 1 6.63819e-05 0.214246 0.41638 55.845 -6.66097e-07 
53 1 0.0356947 0.214255 0.374022 55.845 1.19116e-07 
54 1 0.0357491 0.250029 0.41621 55.845 -4.49136e-07 
56 1 -2.57444e-05 0.142831 0.416348 55.845 -9.8125e-07 
57 1 0.0356778 0.142813 0.374139 55.845 7.42432e-07 
58 1 0.0357441 0.178638 0.416325 55.845 -8.27024e-07 
59 1 0.0714373 0.17858 0.374011 55.845 3.82128e-07 
60 1 0.071455 0.214318 0.4162 55.845 -5.87809e-07 
61 1 0.107131 0.214317 0.374093 55.845 -1.76122e-07 
62 1 0.10716 0.250086 0.416294 55.845 -2.3345e-07 
68 1 0.0713644 0.14282 0.416258 55.845 -1.02981e-06 
69 1 0.107054 0.142812 0.373954 55.845 2.90578e-07 
70 1 0.107121 0.178524 0.416343 55.845 -6.61779e-07 
153 1 -5.25165e-05 0.178497 0.291252 55.845 7.43358e-07 
154 1 -2.13921e-05 0.214317 0.332566 55.845 2.26375e-07 
155 1 0.0356869 0.214304 0.291333 55.845 9.91867e-08 
156 1 0.0356991 0.249967 0.3326 55.845 4.4794e-08 
158 1 -6.49795e-05 0.142856 0.332476 55.845 -1.49647e-07 
159 1 0.0356321 0.142875 0.291243 55.845 5.86357e-07 
160 1 0.0356847 0.178506 0.332428 55.845 -5.79706e-08 
161 1 0.0714336 0.178605 0.291459 55.845 2.96442e-08 
162 1 0.0714764 0.214385 0.332469 55.845 5.18396e-08 
163 1 0.107154 0.214237 0.29124 55.845 -4.32692e-07 
164 1 0.107183 0.250006 0.332586 55.845 6.75923e-07 
170 1 0.0713889 0.142813 0.332402 55.845 -1.88295e-07 
171 1 0.107107 0.142738 0.291397 55.845 -9.09974e-08 
172 1 0.107265 0.178601 0.332468 55.845 -5.86427e-08 
256 1 -6.89727e-05 0.21423 0.250199 55.845 3.61038e-07 
258 1 0.0356934 0.250001 0.250378 55.845 3.94073e-07 
260 1 6.01929e-05 0.142735 0.250268 55.845 1.51824e-07 
262 1 0.035774 0.178615 0.250286 55.845 5.48991e-07 
264 1 0.0714456 0.214317 0.250297 55.845 5.17946e-07 
266 1 0.107152 0.249948 0.25039 55.845 1.00736e-06 
272 1 0.0714895 0.142818 0.250331 55.845 5.67753e-07 
274 1 0.107227 0.178544 0.250361 55.845 5.30376e-07 
11 1 0.142871 0.178641 0.45851 55.845 9.42424e-07 
12 1 0.178558 0.214336 0.458608 55.845 6.30937e-07 
17 1 0.17856 0.142978 0.458556 55.845 1.00287e-06 
18 1 0.214301 0.17863 0.458597 55.845 7.60754e-07 
19 1 0.250001 0.214255 0.458586 55.845 7.85954e-07 
24 1 0.25005 0.142922 0.45865 55.845 8.57046e-07 
71 1 0.142868 0.178531 0.374105 55.845 -3.41382e-07 
72 1 0.142829 0.214296 0.416274 55.845 -3.12162e-07 
73 1 0.178635 0.214312 0.373977 55.845 -4.38827e-07 
82 1 0.142838 0.142843 0.416248 55.845 -6.47871e-07 
83 1 0.178526 0.142813 0.37423 55.845 -4.45534e-07 
84 1 0.178635 0.178627 0.416276 55.845 -3.78682e-07 
85 1 0.214226 0.178598 0.374104 55.845 -2.86266e-07 
86 1 0.214299 0.214352 0.416332 55.845 -4.49011e-07 
87 1 0.250075 0.214341 0.374203 55.845 -1.29181e-07 
96 1 0.21426 0.142824 0.416427 55.845 -5.87048e-07 
97 1 0.250003 0.142851 0.374174 55.845 1.28489e-07 
98 1 0.249968 0.178576 0.416245 55.845 -6.97028e-07 
173 1 0.142838 0.178546 0.29138 55.845 -5.22419e-07 
174 1 0.142832 0.214304 0.332569 55.845 6.43037e-07 
175 1 0.178564 0.214389 0.291551 55.845 -2.59411e-07 
184 1 0.142875 0.142801 0.332431 55.845 3.40092e-08 
185 1 0.178612 0.142828 0.291392 55.845 -3.41911e-07 
186 1 0.178537 0.178597 0.332579 55.845 3.2935e-07 
187 1 0.21433 0.178563 0.291541 55.845 1.08783e-08 
188 1 0.21425 0.214328 0.332597 55.845 4.45124e-07 
189 1 0.249981 0.214296 0.291458 55.845 -1.84168e-07 
198 1 0.214236 0.14286 0.33267 55.845 2.02914e-07 
199 1 0.249933 0.142834 0.291469 55.845 5.38094e-07 
200 1 0.249963 0.178599 0.332644 55.845 1.81954e-07 
276 1 0.142914 0.214287 0.250407 55.845 8.59548e-07 
286 1 0.14276 0.142771 0.25032 55.845 3.47496e-07 
288 1 0.178574 0.178624 0.250243 55.845 5.98425e-07 
290 1 0.214243 0.214275 0.250465 55.845 8.32696e-07 
300 1 0.214217 0.142818 0.250364 55.845 3.18728e-07 
302 1 0.249978 0.178575 0.25038 55.845 7.30449e-07 
25 1 0.28568 0.178545 0.45855 55.845 1.05265e-06 
26 1 0.321329 0.214245 0.458626 55.845 1.05354e-06 
31 1 0.321289 0.142897 0.458772 55.845 1.40525e-06 
32 1 0.35696 0.178522 0.458483 55.845 1.28021e-06 
99 1 0.285702 0.178602 0.374138 55.845 3.69161e-07 
100 1 0.28567 0.214355 0.416319 55.845 -9.47637e-07 
101 1 0.321413 0.214266 0.37419 55.845 1.83279e-07 
110 1 0.285648 0.14285 0.416382 55.845 -9.88528e-07 
111 1 0.321429 0.142908 0.37411 55.845 4.21731e-07 
112 1 0.32134 0.178546 0.416413 55.845 -9.57382e-07 
113 1 0.356999 0.178615 0.374207 55.845 1.12974e-07 
114 1 0.357104 0.214268 0.416381 55.845 -8.97373e-07 
126 1 0.357045 0.142902 0.416393 55.845 -9.41151e-07 
201 1 0.285657 0.178586 0.291455 55.845 5.22727e-07 
202 1 0.28568 0.214368 0.332547 55.845 -1.80485e-07 
203 1 0.321437 0.214364 0.29147 55.845 1.79828e-07 
212 1 0.285711 0.142859 0.332486 55.845 -2.38917e-08 
213 1 0.321451 0.142906 0.291392 55.845 6.69185e-07 
214 1 0.321442 0.178606 0.332495 55.845 -1.98448e-07 
215 1 0.35709 0.178545 0.291247 55.845 2.68248e-07 
216 1 0.35707 0.214193 0.332486 55.845 6.64686e-08 