ITEM: TIMESTEP
6700
ITEM: NUMBER OF ATOMS
5880
ITEM: BOX BOUNDS pp pp ff
-27.9038 27.9038
-27.9038 27.9038
0 34.092
ITEM: ATOMS id type xs ys zs mass q 
259 1 -3.95827e-05 0.10713 0.210337 55.845 -1.65086e-07 
267 1 -3.18805e-05 0.0356115 0.210125 55.845 -1.49053e-07 
269 1 0.0356197 0.0715492 0.21029 55.845 -9.96695e-08 
271 1 0.0714534 0.107081 0.210234 55.845 -4.1637e-08 
279 1 0.0356799 -5.27926e-05 0.210037 55.845 -1.14012e-07 
281 1 0.0713422 0.0357128 0.21016 55.845 -7.38141e-08 
283 1 0.107058 0.071305 0.210131 55.845 -2.62451e-08 
293 1 0.107188 3.79133e-07 0.210118 55.845 -9.57549e-08 
361 1 -3.66029e-05 0.107217 0.126415 55.845 2.59388e-07 
369 1 -2.27202e-07 0.035691 0.126118 55.845 2.62871e-07 
370 1 -6.15998e-05 0.0714243 0.167653 55.845 1.44105e-07 
371 1 0.0357251 0.0713565 0.126236 55.845 2.61679e-07 
372 1 0.0356731 0.107162 0.167614 55.845 1.58835e-07 
373 1 0.0714955 0.107125 0.126182 55.845 2.37069e-07 
380 1 2.52089e-05 -1.40413e-05 0.167542 55.845 7.33304e-08 
381 1 0.0356975 -3.25705e-05 0.126057 55.845 2.0805e-07 
382 1 0.035687 0.0357425 0.167807 55.845 1.17066e-07 
383 1 0.0713276 0.0357135 0.126083 55.845 2.55174e-07 
384 1 0.0714357 0.0714393 0.167753 55.845 1.20443e-07 
385 1 0.107183 0.0713895 0.126218 55.845 2.58215e-07 
386 1 0.107127 0.107205 0.167723 55.845 8.57609e-08 
394 1 0.0714034 7.07515e-05 0.167626 55.845 8.77939e-08 
395 1 0.107017 -3.36511e-05 0.1262 55.845 1.55578e-07 
396 1 0.10708 0.0356844 0.167659 55.845 5.10053e-08 
463 1 0 0.107143 0.0416667 55.845 2.28565e-09 
471 1 0 0.0357143 0.0416667 55.845 2.81587e-08 
472 1 -1.15179e-05 0.0714554 0.0848824 55.845 1.67461e-07 
473 1 0.0357143 0.0714286 0.0416667 55.845 6.96715e-09 
474 1 0.0356494 0.107123 0.0850499 55.845 2.63045e-08 
475 1 0.0714286 0.107143 0.0416667 55.845 -1.65036e-07 
482 1 -1.61546e-05 2.04381e-05 0.0848081 55.845 -6.45078e-08 
483 1 0.0357143 0 0.0416667 55.845 -7.38873e-08 
484 1 0.0356765 0.0357386 0.0848293 55.845 3.73131e-08 
485 1 0.0714286 0.0357143 0.0416667 55.845 -9.17777e-08 
486 1 0.0714038 0.0715157 0.0850049 55.845 -7.2131e-08 
487 1 0.107143 0.0714286 0.0416667 55.845 -1.42718e-07 
488 1 0.107112 0.107135 0.0850311 55.845 -1.43546e-07 
496 1 0.0713665 -5.44667e-05 0.0848895 55.845 -1.0124e-07 
497 1 0.107143 0 0.0416667 55.845 -9.66019e-08 
498 1 0.107051 0.035739 0.084936 55.845 -1.15232e-07 
567 1 0 0.0714286 0 55.845 2.42036e-07 
568 1 0.0357143 0.107143 0 55.845 7.51524e-08 
572 1 0 0 0 55.845 -9.71195e-09 
573 1 0.0357143 0.0357143 0 55.845 1.29206e-07 
574 1 0.0714286 0.0714286 0 55.845 7.70775e-09 
575 1 0.107143 0.107143 0 55.845 -3.21906e-08 
579 1 0.0714286 0 0 55.845 2.63408e-08 
580 1 0.107143 0.0357143 0 55.845 -7.45715e-08 
285 1 0.142764 0.107144 0.209933 55.845 -6.86909e-08 
295 1 0.142856 0.0357175 0.210221 55.845 -2.69702e-08 
297 1 0.178524 0.0714014 0.210126 55.845 -3.65254e-08 
299 1 0.214176 0.107175 0.210117 55.845 -1.07487e-07 
307 1 0.178511 5.99922e-06 0.210041 55.845 -1.01579e-07 
309 1 0.214184 0.0357396 0.210159 55.845 -1.13426e-07 
311 1 0.24998 0.0714347 0.20992 55.845 -7.92747e-08 
387 1 0.142874 0.107175 0.126201 55.845 2.52135e-07 
397 1 0.142849 0.0356946 0.126161 55.845 2.2754e-07 
398 1 0.142799 0.0714126 0.167482 55.845 8.57411e-08 
399 1 0.178527 0.0714341 0.126125 55.845 2.71948e-07 
400 1 0.178454 0.107173 0.167683 55.845 1.09275e-07 
401 1 0.214247 0.107199 0.126193 55.845 2.33609e-07 
408 1 0.142723 -1.74939e-05 0.16767 55.845 7.10525e-08 
409 1 0.178534 -4.54875e-05 0.12637 55.845 2.0458e-07 
410 1 0.178574 0.0357505 0.167638 55.845 1.21038e-07 
411 1 0.214315 0.0356661 0.12608 55.845 2.08659e-07 
412 1 0.214189 0.0714728 0.167601 55.845 9.15324e-08 
413 1 0.249933 0.0714473 0.126384 55.845 1.50585e-07 
414 1 0.249914 0.107196 0.167669 55.845 1.06151e-07 
424 1 0.214324 -3.88082e-05 0.167755 55.845 1.29032e-07 
426 1 0.249888 0.0356722 0.167624 55.845 1.22827e-07 
489 1 0.142857 0.107143 0.0416667 55.845 -6.2209e-08 
499 1 0.142857 0.0357143 0.0416667 55.845 -1.49312e-07 
500 1 0.142892 0.0714492 0.0848731 55.845 -1.36471e-07 
501 1 0.178571 0.0714286 0.0416667 55.845 -3.46845e-08 
502 1 0.178596 0.10719 0.0850386 55.845 2.39375e-09 
503 1 0.214286 0.107143 0.0416667 55.845 -1.85732e-08 
510 1 0.14278 -4.8171e-05 0.0848899 55.845 -4.72329e-08 
511 1 0.178571 0 0.0416667 55.845 -1.19104e-07 
512 1 0.178559 0.0355479 0.0850402 55.845 -6.57332e-08 
513 1 0.214286 0.0357143 0.0416667 55.845 -8.29408e-08 
514 1 0.21428 0.0714599 0.0850075 55.845 -3.13665e-08 
515 1 0.25 0.0714286 0.0416667 55.845 -1.61125e-07 
516 1 0.249956 0.107123 0.0850632 55.845 -1.1107e-07 
526 1 0.214338 4.61002e-05 0.0849387 55.845 -4.94862e-09 
528 1 0.249946 0.0357325 0.0849839 55.845 -1.06589e-07 
581 1 0.142857 0.0714286 0 55.845 -3.22942e-08 
582 1 0.178571 0.107143 0 55.845 6.77458e-08 
586 1 0.142857 0 0 55.845 5.89576e-08 
587 1 0.178571 0.0357143 0 55.845 -2.70893e-08 
588 1 0.214286 0.0714286 0 55.845 1.65496e-08 
589 1 0.25 0.107143 0 55.845 1.79834e-08 
594 1 0.214286 0 0 55.845 7.37154e-08 
595 1 0.25 0.0357143 0 55.845 3.00571e-09 
313 1 0.285734 0.107158 0.2101 55.845 -1.10477e-07 
323 1 0.249921 -3.83889e-05 0.210143 55.845 -1.50464e-07 
325 1 0.285658 0.0356887 0.210113 55.845 -1.44616e-07 
327 1 0.321365 0.0714025 0.210161 55.845 -1.38112e-07 
329 1 0.357273 0.107196 0.210083 55.845 -1.68743e-07 
337 1 0.321438 -6.76737e-05 0.21007 55.845 -1.63966e-07 
339 1 0.357244 0.0356429 0.210228 55.845 -1.41785e-07 
415 1 0.285633 0.107179 0.126141 55.845 6.98292e-08 
425 1 0.249965 -5.63615e-05 0.126073 55.845 1.75748e-07 
427 1 0.285678 0.0356138 0.126113 55.845 7.23347e-08 
428 1 0.285626 0.0714051 0.167684 55.845 -1.32801e-09 
429 1 0.321352 0.0714553 0.126174 55.845 7.01016e-08 
430 1 0.321448 0.107159 0.167679 55.845 -5.67e-08 
431 1 0.357247 0.107124 0.12626 55.845 2.00289e-07 
439 1 0.321296 -2.91089e-05 0.126187 55.845 1.78442e-07 
440 1 0.321288 0.0356994 0.167722 55.845 1.03917e-09 
441 1 0.357111 0.0356341 0.126207 55.845 1.99154e-07 
442 1 0.357092 0.071442 0.167713 55.845 -6.50755e-08 
517 1 0.285714 0.107143 0.0416667 55.845 -1.34832e-07 
527 1 0.25 0 0.0416667 55.845 -1.40075e-07 
529 1 0.285714 0.0357143 0.0416667 55.845 -1.87563e-07 
530 1 0.285626 0.0714741 0.084987 55.845 -2.07438e-07 
531 1 0.321429 0.0714286 0.0416667 55.845 -1.74785e-07 
532 1 0.321491 0.107093 0.0849923 55.845 -1.91523e-07 
533 1 0.357143 0.107143 0.0416667 55.845 -1.13293e-07 
603 1 0.357143 0.0714286 0 55.845 -5.19193e-09 
541 1 0.321429 0 0.0416667 55.845 -8.77367e-08 
542 1 0.321335 0.0357402 0.0849798 55.845 -1.60316e-07 
543 1 0.357143 0.0357143 0.0416667 55.845 -1.24154e-07 
544 1 0.357129 0.0714198 0.0850547 55.845 -1.83809e-07 
602 1 0.321429 0.0357143 0 55.845 -3.23075e-08 
596 1 0.285714 0.0714286 0 55.845 -8.99046e-08 
597 1 0.321429 0.107143 0 55.845 -1.29816e-09 
612 1 0.464286 0.0357143 0 55.845 6.48078e-08 
611 1 0.428571 0 0 55.845 7.08549e-08 
610 1 0.464286 0.107143 0 55.845 -2.29273e-08 
609 1 0.428571 0.0714286 0 55.845 -1.41858e-08 
608 1 0.392857 0.0357143 0 55.845 7.48933e-08 
341 1 0.392798 0.0714361 0.210218 55.845 -1.52498e-07 
343 1 0.428733 0.107121 0.210104 55.845 -1.23483e-07 
348 1 0.392787 5.18367e-06 0.210327 55.845 -1.25794e-07 
350 1 0.428461 0.0357747 0.210243 55.845 -5.81122e-08 
352 1 0.464186 0.0714787 0.210111 55.845 -1.16806e-07 
355 1 0.464327 1.50821e-05 0.210089 55.845 -4.84606e-08 
443 1 0.392854 0.0714534 0.126203 55.845 1.95792e-07 
444 1 0.392991 0.107223 0.167565 55.845 -2.44989e-08 
445 1 0.428498 0.107128 0.126207 55.845 1.41279e-07 
604 1 0.392857 0.107143 0 55.845 9.27967e-08 
450 1 0.392761 2.74673e-05 0.126289 55.845 2.79069e-07 
451 1 0.392847 0.0356439 0.167872 55.845 -1.28935e-08 
452 1 0.428542 0.0357447 0.12623 55.845 2.18094e-07 
453 1 0.428482 0.071373 0.167942 55.845 -1.96302e-08 
454 1 0.464244 0.0714198 0.126217 55.845 1.18854e-07 
455 1 0.464215 0.107076 0.167541 55.845 5.02328e-08 
456 1 0.428517 2.78631e-05 0.167747 55.845 3.10599e-08 
457 1 0.464248 -6.54864e-05 0.126315 55.845 2.00656e-07 
458 1 0.464188 0.0357188 0.167644 55.845 1.81769e-08 
545 1 0.392857 0.0714286 0.0416667 55.845 -7.99202e-08 
546 1 0.392835 0.107155 0.0849068 55.845 -6.06752e-08 
547 1 0.428571 0.107143 0.0416667 55.845 -2.03827e-07 
552 1 0.392857 0 0.0416667 55.845 -6.72544e-09 
553 1 0.392805 0.0357304 0.0850191 55.845 -6.15397e-08 
554 1 0.428571 0.0357143 0.0416667 55.845 -5.05995e-08 
555 1 0.428509 0.0715003 0.0848957 55.845 -1.28875e-07 
556 1 0.464286 0.0714286 0.0416667 55.845 -1.7347e-07 
557 1 0.464314 0.107061 0.0848995 55.845 -1.29484e-07 
558 1 0.428551 2.13305e-05 0.0849481 55.845 -2.00129e-08 
559 1 0.464286 0 0.0416667 55.845 -1.29947e-07 
560 1 0.464321 0.035706 0.0849838 55.845 -8.55804e-08 
255 1 -8.27393e-05 0.178605 0.210209 55.845 -1.8144e-07 
257 1 0.0356545 0.214326 0.210085 55.845 -2.13029e-07 
261 1 0.035694 0.142808 0.210131 55.845 -8.57887e-08 
263 1 0.0713255 0.178633 0.210255 55.845 -1.22684e-07 
265 1 0.107076 0.214388 0.210081 55.845 -1.64218e-07 
273 1 0.107109 0.142921 0.210147 55.845 -1.04309e-07 
357 1 4.61563e-06 0.178572 0.126261 55.845 8.70612e-08 
358 1 -4.64952e-05 0.214321 0.1677 55.845 3.02568e-08 
359 1 0.035703 0.214259 0.12624 55.845 1.23829e-07 
360 1 0.0356784 0.250052 0.167785 55.845 8.71036e-08 
362 1 -0.000121077 0.142872 0.167757 55.845 1.24551e-07 
363 1 0.0357355 0.142891 0.126314 55.845 1.02305e-07 
364 1 0.0356394 0.178557 0.167763 55.845 1.55594e-07 
365 1 0.0713803 0.178531 0.126265 55.845 1.08215e-07 
366 1 0.0714778 0.214354 0.167587 55.845 8.18962e-08 
367 1 0.107093 0.21432 0.126146 55.845 1.67159e-07 
368 1 0.107166 0.250091 0.167641 55.845 8.82137e-08 
374 1 0.0714765 0.142885 0.167854 55.845 9.60026e-08 
375 1 0.107148 0.142876 0.126194 55.845 2.38975e-07 
376 1 0.107119 0.178539 0.167827 55.845 8.85734e-08 
459 1 0 0.178571 0.0416667 55.845 -2.28851e-07 
460 1 -1.85044e-05 0.214167 0.085004 55.845 -7.46097e-08 
461 1 0.0357143 0.214286 0.0416667 55.845 -1.31863e-07 
462 1 0.0355718 0.25005 0.0849056 55.845 4.73714e-09 
464 1 1.46102e-05 0.14292 0.0850486 55.845 -3.23152e-08 
465 1 0.0357143 0.142857 0.0416667 55.845 -1.99588e-07 
466 1 0.0357805 0.178499 0.084909 55.845 -1.49443e-07 
467 1 0.0714286 0.178571 0.0416667 55.845 -1.40833e-07 
468 1 0.0714077 0.214239 0.0850426 55.845 -7.6249e-08 
469 1 0.107143 0.214286 0.0416667 55.845 -3.45646e-08 
470 1 0.107089 0.250031 0.0848621 55.845 -3.6233e-08 
476 1 0.0713672 0.142836 0.0850569 55.845 -7.37955e-08 
477 1 0.107143 0.142857 0.0416667 55.845 -1.29823e-07 
478 1 0.107177 0.178532 0.0849761 55.845 -9.27245e-08 
561 1 0 0.214286 0 55.845 6.80005e-08 
562 1 0.0357143 0.25 0 55.845 1.13775e-07 
563 1 0 0.142857 0 55.845 7.86588e-08 
564 1 0.0357143 0.178571 0 55.845 1.19825e-09 
565 1 0.0714286 0.214286 0 55.845 4.58337e-08 
566 1 0.107143 0.25 0 55.845 7.4131e-08 
569 1 0.0714286 0.142857 0 55.845 -4.97702e-08 
570 1 0.107143 0.178571 0 55.845 5.71741e-08 
275 1 0.142811 0.178628 0.21012 55.845 -1.58405e-07 
277 1 0.178499 0.214403 0.210252 55.845 -1.03011e-07 
287 1 0.178478 0.142861 0.210133 55.845 -1.93986e-07 
289 1 0.214335 0.178575 0.21015 55.845 -1.23322e-07 
291 1 0.25001 0.214233 0.21021 55.845 -1.35648e-07 
301 1 0.250065 0.142959 0.21014 55.845 -1.23817e-07 
377 1 0.14279 0.178605 0.126077 55.845 1.84532e-07 
378 1 0.142854 0.214346 0.167688 55.845 3.99896e-08 
379 1 0.178555 0.214333 0.126209 55.845 1.28535e-07 
388 1 0.14283 0.142889 0.167676 55.845 5.21131e-08 
389 1 0.178558 0.142925 0.12624 55.845 2.86045e-07 
390 1 0.178492 0.178556 0.167755 55.845 6.34124e-08 
391 1 0.214268 0.178625 0.126228 55.845 1.58994e-07 
392 1 0.214258 0.214295 0.167744 55.845 3.19507e-08 
393 1 0.25008 0.214312 0.126151 55.845 1.27242e-07 
402 1 0.214309 0.142854 0.167645 55.845 6.34986e-08 
403 1 0.250007 0.142848 0.126104 55.845 1.82227e-07 
404 1 0.250042 0.178472 0.167536 55.845 9.6262e-08 
479 1 0.142857 0.178571 0.0416667 55.845 -2.04867e-08 
480 1 0.14286 0.214348 0.0848631 55.845 -1.1513e-07 
481 1 0.178571 0.214286 0.0416667 55.845 -8.50369e-08 
490 1 0.142948 0.14288 0.0848667 55.845 -1.72845e-08 
491 1 0.178571 0.142857 0.0416667 55.845 2.05645e-08 
492 1 0.178611 0.178576 0.0850292 55.845 -1.86497e-08 
493 1 0.214286 0.178571 0.0416667 55.845 -1.04429e-07 
494 1 0.214212 0.214272 0.0850719 55.845 -2.02475e-08 
495 1 0.25 0.214286 0.0416667 55.845 -6.49898e-08 
504 1 0.214208 0.142827 0.0848166 55.845 4.98561e-09 
505 1 0.25 0.142857 0.0416667 55.845 -9.82765e-08 
506 1 0.250003 0.178519 0.0849036 55.845 -2.85017e-08 
571 1 0.142857 0.214286 0 55.845 5.94599e-08 
576 1 0.142857 0.142857 0 55.845 9.58169e-08 
577 1 0.178571 0.178571 0 55.845 1.43747e-07 
578 1 0.214286 0.214286 0 55.845 1.11278e-07 
583 1 0.214286 0.142857 0 55.845 1.26077e-07 
584 1 0.25 0.178571 0 55.845 1.54079e-07 
303 1 0.285735 0.178573 0.210079 55.845 -1.21763e-07 
305 1 0.321476 0.214336 0.21009 55.845 -1.32181e-07 
315 1 0.32152 0.142824 0.210101 55.845 -1.7098e-07 
317 1 0.357205 0.178567 0.21005 55.845 -1.94921e-07 
405 1 0.285831 0.178635 0.126045 55.845 1.09783e-07 
406 1 0.28576 0.214364 0.167619 55.845 7.7061e-08 
407 1 0.321566 0.214294 0.126049 55.845 1.38281e-07 
416 1 0.285804 0.142829 0.167545 55.845 1.65771e-08 
417 1 0.321479 0.142928 0.126102 55.845 2.09284e-07 
418 1 0.32145 0.178612 0.167592 55.845 1.07344e-08 
419 1 0.357217 0.178659 0.126157 55.845 2.6432e-07 
420 1 0.357208 0.214343 0.167909 55.845 2.0826e-08 
432 1 0.357162 0.142908 0.167551 55.845 -3.41913e-08 
507 1 0.285714 0.178571 0.0416667 55.845 -1.37236e-07 
508 1 0.285672 0.214429 0.0848714 55.845 -2.40177e-08 
509 1 0.321429 0.214286 0.0416667 55.845 -8.32473e-08 
518 1 0.285788 0.142898 0.0849886 55.845 -1.16735e-07 
519 1 0.321429 0.142857 0.0416667 55.845 -1.03689e-07 
520 1 0.321424 0.178633 0.0848602 55.845 -4.55999e-08 
521 1 0.357143 0.178571 0.0416667 55.845 -5.86884e-08 
522 1 0.357198 0.214288 0.0849314 55.845 -1.47231e-07 
534 1 0.35715 0.142902 0.0849541 55.845 -8.74521e-08 
585 1 0.285714 0.214286 0 55.845 1.0858e-07 
590 1 0.285714 0.142857 0 55.845 1.14382e-09 
591 1 0.321429 0.178571 0 55.845 1.22237e-07 
592 1 0.357143 0.214286 0 55.845 4.53998e-08 
598 1 0.357143 0.142857 0 55.845 1.55177e-07 
319 1 0.392938 0.214225 0.210147 55.845 -6.37673e-08 
321 1 0.428581 0.24995 0.210321 55.845 -7.43702e-08 
331 1 0.392942 0.142846 0.210015 55.845 -1.76948e-07 
333 1 0.428653 0.17863 0.210118 55.845 -9.41929e-08 
335 1 0.464317 0.21422 0.21034 55.845 -8.67617e-08 
345 1 0.464269 0.142734 0.210117 55.845 -7.75457e-08 
606 1 0.464286 0.178571 0 55.845 -1.47865e-08 
421 1 0.39287 0.214391 0.126291 55.845 2.09664e-07 
422 1 0.392935 0.249993 0.167741 55.845 3.51931e-08 
423 1 0.428617 0.25005 0.126249 55.845 2.30709e-07 
433 1 0.392913 0.142928 0.126064 55.845 2.81543e-07 
434 1 0.392937 0.178597 0.167563 55.845 3.92002e-08 
435 1 0.42865 0.178652 0.126109 55.845 2.38771e-07 
436 1 0.428642 0.214339 0.167641 55.845 1.16601e-07 
437 1 0.464411 0.214332 0.12626 55.845 2.69883e-07 
605 1 0.428571 0.142857 0 55.845 3.32974e-08 
446 1 0.428601 0.14288 0.167533 55.845 6.44237e-08 
447 1 0.464207 0.142821 0.126023 55.845 1.04708e-07 
448 1 0.464399 0.178599 0.167661 55.845 1.50958e-07 
523 1 0.392857 0.214286 0.0416667 55.845 -7.34658e-08 
524 1 0.392902 0.25 0.0848764 55.845 -1.85466e-07 
525 1 0.428571 0.25 0.0416667 55.845 -7.30727e-08 
535 1 0.392857 0.142857 0.0416667 55.845 -2.20169e-08 
536 1 0.392946 0.178668 0.0848493 55.845 1.58265e-08 
537 1 0.428571 0.178571 0.0416667 55.845 -1.82295e-08 
538 1 0.428629 0.214252 0.0849878 55.845 1.70802e-09 
539 1 0.464286 0.214286 0.0416667 55.845 -6.23254e-09 
548 1 0.428621 0.142857 0.0848838 55.845 -7.23277e-08 
549 1 0.464286 0.142857 0.0416667 55.845 -2.0518e-07 
550 1 0.464319 0.178584 0.0849573 55.845 -9.1782e-08 
593 1 0.392857 0.25 0 55.845 -4.95049e-08 
599 1 0.392857 0.178571 0 55.845 9.2737e-08 
600 1 0.428571 0.214286 0 55.845 7.91916e-08 
3 1 -1.07564e-05 0.107172 0.463721 55.845 2.75446e-07 
7 1 1.7615e-05 0.0356735 0.463805 55.845 3.15287e-07 
8 1 0.0356721 0.0714955 0.463753 55.845 2.98659e-07 
9 1 0.0715551 0.107128 0.463586 55.845 1.46961e-07 
13 1 0.0355928 -1.76307e-05 0.463777 55.845 1.87907e-07 
14 1 0.0714685 0.0356221 0.463773 55.845 2.1573e-07 
15 1 0.107146 0.0715075 0.463719 55.845 2.12209e-07 
20 1 0.107166 -2.4661e-05 0.463845 55.845 1.30528e-07 
55 1 -1.06513e-05 0.107211 0.380824 55.845 -2.55766e-07 
63 1 -2.42046e-05 0.0356898 0.38078 55.845 -2.8238e-07 
64 1 2.25929e-05 0.0714581 0.422558 55.845 -4.65585e-08 
65 1 0.0357382 0.0713373 0.380812 55.845 -3.00908e-07 
66 1 0.0356637 0.107177 0.422514 55.845 3.93906e-08 
67 1 0.0713532 0.107086 0.380671 55.845 -2.00635e-07 
74 1 -0.000102594 -6.7129e-05 0.422566 55.845 1.08676e-08 
75 1 0.0356475 -7.55608e-05 0.380896 55.845 -2.18914e-07 
76 1 0.0356745 0.0356424 0.422427 55.845 1.04424e-07 
77 1 0.0714001 0.0356432 0.380864 55.845 -2.57266e-07 
78 1 0.071465 0.0713549 0.422439 55.845 1.09465e-07 
79 1 0.107099 0.0713865 0.380601 55.845 -2.8746e-07 
80 1 0.107124 0.107122 0.4225 55.845 1.73683e-07 
88 1 0.0713617 -0.000119314 0.422464 55.845 1.07596e-07 
89 1 0.10705 2.61156e-06 0.380773 55.845 -2.14603e-07 
90 1 0.107119 0.035676 0.422391 55.845 1.10873e-07 
157 1 -7.87669e-05 0.107107 0.295011 55.845 2.24052e-07 
165 1 -8.31689e-05 0.0357277 0.295006 55.845 2.16609e-07 
166 1 1.92646e-05 0.0714849 0.338233 55.845 -2.06165e-07 
167 1 0.0355994 0.0715741 0.294908 55.845 2.25306e-07 
168 1 0.0357718 0.107166 0.338024 55.845 -2.22643e-08 
169 1 0.0714448 0.107133 0.29501 55.845 2.92427e-07 
176 1 -1.49614e-05 -5.42835e-05 0.338135 55.845 -4.11748e-08 
177 1 0.0356942 -6.87849e-05 0.294952 55.845 3.6364e-07 
178 1 0.0356476 0.0356848 0.338062 55.845 -1.19613e-07 
179 1 0.0713739 0.0357183 0.294931 55.845 3.1691e-07 
180 1 0.0712861 0.0713696 0.338162 55.845 6.43268e-08 
181 1 0.107055 0.0713979 0.294869 55.845 3.63318e-07 
182 1 0.107071 0.107136 0.33824 55.845 8.57126e-08 
190 1 0.0713484 -5.14283e-05 0.33809 55.845 -2.3368e-08 
191 1 0.107117 0.000101356 0.295123 55.845 3.25316e-07 
192 1 0.107128 0.035715 0.338034 55.845 5.15617e-08 
268 1 -8.22735e-05 0.0714783 0.252469 55.845 -2.03589e-07 
270 1 0.0356686 0.107275 0.252492 55.845 2.07078e-09 
278 1 1.13559e-05 -8.92415e-05 0.252236 55.845 -3.13307e-08 
280 1 0.0357176 0.0357006 0.252445 55.845 -1.91538e-07 
282 1 0.0714088 0.07148 0.252312 55.845 -9.60709e-08 
284 1 0.107155 0.107133 0.252383 55.845 -4.59542e-08 
292 1 0.0714256 5.11589e-06 0.252429 55.845 -8.11782e-08 
294 1 0.107088 0.0356063 0.252338 55.845 -4.61441e-08 
16 1 0.142919 0.106988 0.463609 55.845 2.26076e-07 
21 1 0.142837 0.0356829 0.46364 55.845 1.51954e-07 
22 1 0.178541 0.0714363 0.463605 55.845 2.25638e-07 
23 1 0.214362 0.107025 0.463791 55.845 2.42078e-07 
27 1 0.178487 -1.22661e-05 0.463796 55.845 1.23753e-07 
28 1 0.214174 0.035743 0.463659 55.845 2.17688e-07 
29 1 0.250048 0.0714549 0.463985 55.845 1.88235e-07 
81 1 0.142897 0.107066 0.380705 55.845 -3.54739e-07 
91 1 0.142819 0.0356558 0.380739 55.845 -3.15577e-07 
92 1 0.142937 0.071347 0.422268 55.845 1.52742e-07 
93 1 0.178602 0.0714379 0.380822 55.845 -2.92723e-07 
94 1 0.17863 0.107144 0.422318 55.845 9.21168e-08 
95 1 0.214286 0.10718 0.380797 55.845 -3.85933e-07 
102 1 0.142776 1.68056e-05 0.422373 55.845 4.18188e-08 
103 1 0.178457 -7.43045e-05 0.380691 55.845 -2.0657e-07 
104 1 0.178622 0.035689 0.422207 55.845 5.30698e-08 
105 1 0.214249 0.0356656 0.380743 55.845 -3.52053e-07 
106 1 0.214361 0.0714093 0.422289 55.845 4.91406e-08 
107 1 0.250061 0.071473 0.380871 55.845 -2.52422e-07 
108 1 0.249936 0.107062 0.422433 55.845 2.56115e-08 
118 1 0.214166 2.95747e-05 0.42232 55.845 7.42579e-09 
120 1 0.249948 0.0357495 0.422332 55.845 2.86441e-08 
183 1 0.142795 0.107145 0.295188 55.845 2.18797e-07 
193 1 0.142857 0.0357849 0.294902 55.845 3.2076e-07 
194 1 0.142808 0.0713776 0.338121 55.845 1.3808e-08 
195 1 0.178535 0.0714911 0.294939 55.845 2.29046e-07 
196 1 0.178567 0.107134 0.338189 55.845 -1.35161e-07 
197 1 0.214275 0.10718 0.295029 55.845 2.49806e-07 
204 1 0.142763 -5.5189e-05 0.337935 55.845 -1.85299e-08 
205 1 0.178551 1.72922e-05 0.294993 55.845 2.94742e-07 
206 1 0.17855 0.0357094 0.338111 55.845 -7.41314e-08 
207 1 0.214331 0.0357673 0.29501 55.845 3.2483e-07 
208 1 0.21431 0.0714123 0.338127 55.845 -1.00112e-07 
209 1 0.249975 0.0715086 0.294888 55.845 3.60386e-07 
210 1 0.249986 0.107184 0.33806 55.845 -2.11692e-08 
220 1 0.214258 -2.39268e-05 0.338149 55.845 -9.83991e-08 
222 1 0.249965 0.0357372 0.338148 55.845 -2.96935e-08 
296 1 0.142826 0.071474 0.252354 55.845 -1.04287e-07 
298 1 0.178475 0.10713 0.25246 55.845 -2.08322e-07 
306 1 0.142853 -9.87017e-06 0.25237 55.845 -1.15756e-07 
308 1 0.178493 0.0357528 0.252496 55.845 -8.41162e-08 
310 1 0.214213 0.0714038 0.252231 55.845 -1.3601e-07 
312 1 0.249951 0.10721 0.252213 55.845 -1.56257e-07 
322 1 0.214339 7.57209e-05 0.252336 55.845 -3.67797e-08 
324 1 0.250018 0.0357091 0.252312 55.845 -4.45862e-08 
30 1 0.285649 0.107157 0.463905 55.845 1.69356e-07 
35 1 0.249913 0.000162603 0.463701 55.845 8.97708e-08 
36 1 0.285697 0.0357334 0.463807 55.845 1.45607e-07 
37 1 0.321478 0.0714658 0.463779 55.845 1.98871e-07 
38 1 0.357262 0.107206 0.463842 55.845 1.74785e-07 
42 1 0.321258 2.67272e-06 0.463791 55.845 1.1709e-07 
43 1 0.357125 0.0356398 0.463765 55.845 1.73585e-07 
109 1 0.28569 0.107215 0.380878 55.845 -2.36231e-07 
119 1 0.25 2.83419e-06 0.380779 55.845 -2.01458e-07 
121 1 0.285759 0.0356595 0.380878 55.845 -2.42488e-07 
122 1 0.285707 0.0714539 0.42255 55.845 3.02433e-08 
123 1 0.321406 0.0714828 0.380999 55.845 -2.24741e-07 
124 1 0.321433 0.107198 0.422635 55.845 1.14177e-07 
125 1 0.357059 0.10709 0.380877 55.845 -2.08203e-07 
133 1 0.321399 -1.09268e-05 0.380888 55.845 -3.25081e-07 
134 1 0.321415 0.035679 0.422496 55.845 8.99636e-08 
135 1 0.357122 0.0357487 0.380825 55.845 -2.99507e-07 
136 1 0.357208 0.0713533 0.422483 55.845 1.16293e-07 
211 1 0.285768 0.107113 0.295055 55.845 3.5497e-07 
221 1 0.250035 -5.87568e-05 0.295036 55.845 2.8807e-07 
223 1 0.285666 0.0356352 0.295161 55.845 3.53805e-07 
224 1 0.285635 0.0714948 0.338244 55.845 5.17868e-08 
225 1 0.321332 0.0713605 0.295015 55.845 3.484e-07 
226 1 0.321314 0.107129 0.338102 55.845 3.78987e-09 
227 1 0.357047 0.10704 0.29498 55.845 2.78176e-07 
235 1 0.321441 -1.74947e-05 0.295117 55.845 3.31417e-07 
236 1 0.321302 0.0357006 0.338236 55.845 5.01918e-08 
237 1 0.357099 0.0357408 0.295001 55.845 3.00148e-07 
238 1 0.357062 0.0714085 0.338158 55.845 4.48877e-08 
326 1 0.285712 0.0713526 0.252381 55.845 -6.56103e-08 
328 1 0.321439 0.107133 0.25237 55.845 -8.65975e-08 
338 1 0.321345 0.0356598 0.252265 55.845 -9.95978e-08 
340 1 0.357057 0.0713529 0.252436 55.845 -1.55044e-07 
44 1 0.392796 0.0715282 0.463654 55.845 2.78531e-07 
45 1 0.428529 0.107192 0.463774 55.845 2.283e-07 
47 1 0.392876 2.66645e-05 0.463646 55.845 2.06261e-07 
48 1 0.428534 0.0358099 0.463914 55.845 1.73368e-07 
49 1 0.464247 0.0714086 0.463695 55.845 2.88548e-07 
50 1 0.464313 -7.97111e-06 0.463849 55.845 2.57404e-07 
137 1 0.392871 0.0714696 0.380775 55.845 -2.63532e-07 
138 1 0.39278 0.107172 0.42235 55.845 1.27228e-07 
139 1 0.428529 0.107201 0.380678 55.845 -1.7939e-07 
144 1 0.392825 6.57955e-05 0.38092 55.845 -3.57252e-07 
145 1 0.392898 0.0357552 0.422316 55.845 5.35668e-08 
146 1 0.428562 0.0357256 0.380845 55.845 -2.13979e-07 
147 1 0.428609 0.0715064 0.422376 55.845 7.0188e-09 
148 1 0.46433 0.0713556 0.38078 55.845 -2.15436e-07 
149 1 0.464224 0.107147 0.422348 55.845 -1.92188e-08 
150 1 0.428593 -2.44109e-05 0.422565 55.845 -9.7899e-08 
151 1 0.464293 3.32209e-05 0.381062 55.845 -2.4556e-07 
152 1 0.464296 0.0357501 0.422489 55.845 -8.36878e-08 
239 1 0.392775 0.071382 0.295291 55.845 2.81096e-07 
240 1 0.392792 0.107228 0.338136 55.845 -6.94535e-08 
241 1 0.428497 0.107134 0.295016 55.845 3.24386e-07 
246 1 0.392864 -6.00155e-05 0.295187 55.845 3.01813e-07 
247 1 0.392883 0.0357379 0.338164 55.845 -9.16114e-08 
248 1 0.428626 0.0357132 0.295196 55.845 2.08076e-07 
249 1 0.428538 0.0714981 0.338228 55.845 -2.82398e-09 
250 1 0.464235 0.0713943 0.295073 55.845 3.44952e-07 
251 1 0.464289 0.107122 0.338146 55.845 -6.21972e-08 
252 1 0.428557 -3.04665e-05 0.338292 55.845 -1.84512e-07 
253 1 0.464241 3.35655e-05 0.295066 55.845 3.30119e-07 
254 1 0.464241 0.0356067 0.338332 55.845 -1.65776e-07 
342 1 0.392818 0.107131 0.252355 55.845 -1.08873e-07 
349 1 0.392839 0.0357197 0.252566 55.845 -1.65783e-07 
351 1 0.428453 0.0714395 0.252504 55.845 -1.44319e-07 
353 1 0.464295 0.107125 0.252533 55.845 -6.0895e-08 
354 1 0.428565 1.4468e-05 0.252371 55.845 -1.85048e-07 
356 1 0.464263 0.0356168 0.252382 55.845 -2.24046e-07 
1 1 4.51176e-05 0.178556 0.463775 55.845 1.58699e-07 
2 1 0.0356915 0.214147 0.463865 55.845 1.67601e-07 
4 1 0.0356561 0.142821 0.463482 55.845 1.59107e-07 
5 1 0.0714521 0.178519 0.463827 55.845 1.43531e-07 
6 1 0.107154 0.214163 0.463723 55.845 1.2142e-07 
10 1 0.107131 0.142797 0.463681 55.845 1.79791e-07 
51 1 -7.57941e-05 0.178641 0.380628 55.845 -1.63537e-07 
52 1 6.34397e-05 0.214253 0.422312 55.845 2.17578e-09 
53 1 0.0357741 0.214202 0.380786 55.845 -2.42058e-07 
54 1 0.035731 0.250009 0.422398 55.845 1.02544e-07 
56 1 -9.08589e-05 0.142924 0.422192 55.845 5.5792e-09 
57 1 0.0356625 0.142937 0.380719 55.845 -2.21702e-07 
58 1 0.0356869 0.178585 0.42248 55.845 4.35769e-08 
59 1 0.0713864 0.178601 0.380904 55.845 -1.98803e-07 
60 1 0.0714013 0.214271 0.42256 55.845 1.8657e-07 
61 1 0.107135 0.214201 0.380854 55.845 -2.70914e-07 
62 1 0.10718 0.249947 0.422514 55.845 1.18114e-07 
68 1 0.0713931 0.142839 0.422251 55.845 1.4502e-07 
69 1 0.107169 0.142933 0.38077 55.845 -2.72428e-07 
70 1 0.107169 0.178453 0.422556 55.845 2.15171e-07 
153 1 -2.14181e-05 0.178599 0.294995 55.845 4.26645e-07 
154 1 2.00218e-05 0.214301 0.337987 55.845 1.81273e-09 
155 1 0.0357326 0.214335 0.294958 55.845 3.07026e-07 
156 1 0.0357158 0.249986 0.338049 55.845 -6.45137e-08 
158 1 8.52234e-07 0.142851 0.33808 55.845 1.98696e-08 
159 1 0.0356718 0.142884 0.294921 55.845 4.28519e-07 
160 1 0.0357411 0.178608 0.338045 55.845 6.3735e-08 
161 1 0.0713898 0.17861 0.294882 55.845 3.99865e-07 
162 1 0.0714755 0.214269 0.338134 55.845 1.08896e-08 
163 1 0.107207 0.214242 0.295 55.845 3.28248e-07 
164 1 0.107127 0.249957 0.338232 55.845 -2.16212e-08 
170 1 0.0714337 0.14292 0.338109 55.845 9.39926e-08 
171 1 0.107114 0.142877 0.295132 55.845 3.49882e-07 
172 1 0.107111 0.178518 0.33806 55.845 2.97011e-09 
256 1 -0.000113274 0.214306 0.252398 55.845 -2.36781e-09 
258 1 0.0357467 0.250047 0.252417 55.845 -1.19929e-07 
260 1 -2.84631e-05 0.14283 0.252458 55.845 4.36084e-08 
262 1 0.0356417 0.178509 0.252381 55.845 6.92948e-08 
264 1 0.0714134 0.214416 0.252332 55.845 -2.83339e-08 
266 1 0.107093 0.250048 0.252415 55.845 -8.19413e-08 
272 1 0.0713872 0.142964 0.252327 55.845 5.41258e-08 
274 1 0.107178 0.178584 0.252374 55.845 -9.74409e-08 
11 1 0.142972 0.178449 0.463851 55.845 2.42002e-07 
12 1 0.178634 0.214326 0.463806 55.845 9.70003e-08 
17 1 0.178511 0.142901 0.463708 55.845 1.95787e-07 
18 1 0.214269 0.178521 0.463875 55.845 1.17328e-07 
19 1 0.250008 0.21433 0.463704 55.845 1.51467e-07 
24 1 0.249842 0.142933 0.463847 55.845 1.72761e-07 
71 1 0.142923 0.178667 0.380658 55.845 -2.88019e-07 
72 1 0.142983 0.214227 0.422455 55.845 1.0522e-07 
73 1 0.178656 0.214276 0.380701 55.845 -2.24077e-07 
82 1 0.142849 0.14285 0.422356 55.845 1.27824e-07 
83 1 0.178518 0.142908 0.380755 55.845 -3.12884e-07 
84 1 0.178605 0.178636 0.422309 55.845 5.10457e-08 
85 1 0.214402 0.178563 0.380833 55.845 -2.32656e-07 
86 1 0.214422 0.214208 0.422445 55.845 -4.86041e-08 
87 1 0.250081 0.21425 0.380837 55.845 -2.80802e-07 
96 1 0.214314 0.142835 0.422398 55.845 -6.1269e-09 
97 1 0.250014 0.142914 0.380833 55.845 -2.84347e-07 
98 1 0.250059 0.178628 0.422493 55.845 -1.32528e-07 
173 1 0.142822 0.178465 0.294935 55.845 3.24958e-07 
174 1 0.142848 0.214397 0.337965 55.845 1.06764e-07 
175 1 0.178568 0.214319 0.295042 55.845 3.64561e-07 
184 1 0.142898 0.142813 0.338085 55.845 -4.52844e-08 
185 1 0.178594 0.142774 0.294969 55.845 1.78538e-07 
186 1 0.178637 0.178537 0.337957 55.845 -5.84047e-08 
187 1 0.21437 0.178561 0.294722 55.845 3.18938e-07 
188 1 0.214338 0.21428 0.338105 55.845 5.79092e-08 
189 1 0.250052 0.214224 0.295018 55.845 3.81984e-07 
198 1 0.214267 0.142914 0.338184 55.845 -1.12648e-07 
199 1 0.250027 0.142952 0.294888 55.845 3.23195e-07 
200 1 0.249997 0.178592 0.338132 55.845 -5.44544e-08 
276 1 0.142824 0.214284 0.25252 55.845 -4.74823e-08 
286 1 0.142908 0.142817 0.252396 55.845 -1.48608e-07 
288 1 0.178559 0.178616 0.252402 55.845 -1.12502e-07 
290 1 0.214252 0.214269 0.252389 55.845 3.68666e-08 
300 1 0.214273 0.142947 0.252246 55.845 -6.70865e-08 
302 1 0.250074 0.178533 0.252146 55.845 -6.4995e-09 
25 1 0.285698 0.178516 0.46378 55.845 1.39718e-07 
26 1 0.32139 0.214257 0.463713 55.845 1.61178e-07 
31 1 0.321417 0.142927 0.463811 55.845 1.92903e-07 
32 1 0.357152 0.178607 0.463779 55.845 1.63748e-07 
99 1 0.285666 0.178605 0.380751 55.845 -2.38326e-07 
100 1 0.285775 0.214297 0.422503 55.845 -7.76738e-08 
101 1 0.321447 0.214328 0.380761 55.845 -3.23426e-07 
110 1 0.285672 0.142905 0.422259 55.845 -9.52897e-09 
111 1 0.3214 0.142852 0.380629 55.845 -3.09682e-07 
112 1 0.32144 0.178514 0.422367 55.845 4.86981e-08 
113 1 0.357128 0.178601 0.380518 55.845 -3.56245e-07 
114 1 0.357134 0.214059 0.422252 55.845 8.28248e-08 
126 1 0.357091 0.142884 0.422501 55.845 1.29417e-07 
201 1 0.285733 0.178557 0.294972 55.845 3.20528e-07 
202 1 0.285735 0.214224 0.33806 55.845 -4.70233e-08 
203 1 0.321409 0.214184 0.29504 55.845 3.1324e-07 
212 1 0.285705 0.142871 0.338134 55.845 1.54032e-08 
213 1 0.321439 0.142884 0.294878 55.845 2.71284e-07 
214 1 0.321358 0.17861 0.338022 55.845 -1.5035e-07 
215 1 0.357149 0.178554 0.294918 55.845 2.66592e-07 