ITEM: TIMESTEP
7700
ITEM: NUMBER OF ATOMS
5880
ITEM: BOX BOUNDS pp pp ff
-27.9755 27.9755
-27.9755 27.9755
0 34.092
ITEM: ATOMS id type xs ys zs mass q 
259 1 5.35955e-05 0.10722 0.207324 55.845 1.0576e-07 
267 1 6.83212e-05 0.0356966 0.20719 55.845 8.08299e-08 
269 1 0.0357648 0.0714831 0.207247 55.845 -1.31886e-08 
271 1 0.0714217 0.107093 0.207326 55.845 7.36152e-08 
279 1 0.0357105 -8.3292e-05 0.207371 55.845 2.61078e-07 
281 1 0.071442 0.0357717 0.207214 55.845 1.04679e-07 
283 1 0.107118 0.0714156 0.207308 55.845 2.649e-07 
293 1 0.107005 -8.70075e-05 0.207089 55.845 2.88046e-08 
361 1 4.15515e-07 0.107119 0.125465 55.845 2.04984e-08 
369 1 2.06255e-05 0.0356835 0.125542 55.845 3.76257e-08 
370 1 0.000102693 0.0714271 0.165812 55.845 -1.80269e-07 
371 1 0.0357275 0.0712517 0.125273 55.845 -7.79078e-09 
372 1 0.0356277 0.10715 0.165596 55.845 -2.14541e-07 
373 1 0.0713506 0.107172 0.125203 55.845 -6.07837e-08 
380 1 3.58005e-05 5.77841e-05 0.165752 55.845 -1.75355e-07 
381 1 0.0357348 0.000130907 0.125498 55.845 -1.18112e-07 
382 1 0.0358011 0.0356923 0.165804 55.845 -2.12286e-07 
383 1 0.0713832 0.0357461 0.125353 55.845 -6.1369e-08 
384 1 0.0714159 0.0714542 0.165557 55.845 -1.15252e-07 
385 1 0.107159 0.0713688 0.125412 55.845 -9.76437e-08 
386 1 0.107054 0.107012 0.165687 55.845 -2.40924e-07 
394 1 0.0714341 7.49896e-05 0.165608 55.845 -1.21236e-07 
395 1 0.107173 -8.39732e-05 0.125471 55.845 -8.62568e-08 
396 1 0.10715 0.0356029 0.165553 55.845 -1.57148e-07 
463 1 0 0.107143 0.0416667 55.845 -4.00987e-07 
471 1 0 0.0357143 0.0416667 55.845 -3.63362e-07 
472 1 1.40684e-05 0.0713477 0.0841476 55.845 8.19072e-07 
473 1 0.0357143 0.0714286 0.0416667 55.845 -3.28813e-07 
474 1 0.0356683 0.107107 0.0840945 55.845 7.13856e-07 
475 1 0.0714286 0.107143 0.0416667 55.845 -6.076e-07 
482 1 3.78576e-05 -1.6381e-06 0.0841248 55.845 6.00407e-07 
483 1 0.0357143 0 0.0416667 55.845 -4.68924e-07 
484 1 0.0356423 0.0356581 0.0841126 55.845 7.37043e-07 
485 1 0.0714286 0.0357143 0.0416667 55.845 -4.8127e-07 
486 1 0.0714267 0.0714122 0.0840548 55.845 7.28714e-07 
487 1 0.107143 0.0714286 0.0416667 55.845 -6.79896e-07 
488 1 0.107021 0.107193 0.0840062 55.845 6.24211e-07 
496 1 0.0714457 -1.85257e-05 0.0841008 55.845 8.23512e-07 
497 1 0.107143 0 0.0416667 55.845 -3.46754e-07 
498 1 0.107189 0.0356538 0.0841876 55.845 6.66073e-07 
567 1 0 0.0714286 0 55.845 3.45799e-07 
568 1 0.0357143 0.107143 0 55.845 1.90783e-07 
572 1 0 0 0 55.845 3.15821e-09 
573 1 0.0357143 0.0357143 0 55.845 1.41689e-07 
574 1 0.0714286 0.0714286 0 55.845 1.45971e-07 
575 1 0.107143 0.107143 0 55.845 1.40637e-07 
579 1 0.0714286 0 0 55.845 1.88532e-07 
580 1 0.107143 0.0357143 0 55.845 1.5908e-07 
285 1 0.142779 0.107113 0.207073 55.845 5.39614e-08 
295 1 0.142889 0.0356885 0.207393 55.845 2.14173e-07 
297 1 0.178683 0.0713333 0.207335 55.845 1.2987e-07 
299 1 0.214293 0.107147 0.207311 55.845 1.84816e-07 
307 1 0.178572 -0.000139882 0.207283 55.845 1.78322e-07 
309 1 0.214341 0.0356597 0.20743 55.845 2.35924e-07 
311 1 0.250042 0.0713915 0.207364 55.845 1.75062e-07 
387 1 0.142909 0.107109 0.125248 55.845 -6.68013e-08 
397 1 0.142906 0.0357085 0.125393 55.845 -1.14456e-07 
398 1 0.142951 0.0713615 0.165928 55.845 -2.99088e-07 
399 1 0.178586 0.071425 0.125558 55.845 -2.47743e-08 
400 1 0.178547 0.107013 0.16572 55.845 -1.96332e-07 
401 1 0.214205 0.107185 0.125435 55.845 -1.16781e-07 
408 1 0.142851 -5.83208e-05 0.165759 55.845 -2.34275e-07 
409 1 0.178555 -4.06411e-05 0.125361 55.845 -1.29246e-07 
410 1 0.178605 0.0356546 0.165964 55.845 -2.40828e-07 
411 1 0.214242 0.0357117 0.125462 55.845 -1.35806e-07 
412 1 0.214326 0.0714132 0.16599 55.845 -1.99539e-07 
413 1 0.250012 0.0714902 0.125463 55.845 -6.32062e-08 
414 1 0.249941 0.107239 0.165776 55.845 -2.11395e-07 
424 1 0.214325 2.45039e-05 0.165896 55.845 -2.21385e-07 
426 1 0.250054 0.0356883 0.165687 55.845 -1.79818e-07 
489 1 0.142857 0.107143 0.0416667 55.845 -4.68488e-07 
499 1 0.142857 0.0357143 0.0416667 55.845 -5.39742e-07 
500 1 0.142849 0.0714631 0.084188 55.845 6.93305e-07 
501 1 0.178571 0.0714286 0.0416667 55.845 -4.44544e-07 
502 1 0.178593 0.107112 0.0841521 55.845 8.5474e-07 
503 1 0.214286 0.107143 0.0416667 55.845 -3.59976e-07 
510 1 0.142845 1.39947e-05 0.0842084 55.845 7.55233e-07 
511 1 0.178571 0 0.0416667 55.845 -4.33052e-07 
512 1 0.178407 0.0355823 0.084208 55.845 7.69693e-07 
513 1 0.214286 0.0357143 0.0416667 55.845 -4.9481e-07 
514 1 0.214266 0.0713963 0.0842067 55.845 8.48356e-07 
515 1 0.25 0.0714286 0.0416667 55.845 -4.02535e-07 
516 1 0.249985 0.107114 0.0842084 55.845 7.64111e-07 
526 1 0.214348 6.68893e-05 0.0841857 55.845 6.52347e-07 
528 1 0.249918 0.0356643 0.0842587 55.845 7.09744e-07 
581 1 0.142857 0.0714286 0 55.845 1.73189e-08 
582 1 0.178571 0.107143 0 55.845 1.20866e-07 
586 1 0.142857 0 0 55.845 3.15011e-07 
587 1 0.178571 0.0357143 0 55.845 1.12585e-07 
588 1 0.214286 0.0714286 0 55.845 1.73293e-07 
589 1 0.25 0.107143 0 55.845 1.31477e-07 
594 1 0.214286 0 0 55.845 1.75229e-07 
595 1 0.25 0.0357143 0 55.845 3.19069e-07 
313 1 0.285623 0.107205 0.207338 55.845 1.87093e-07 
323 1 0.250042 4.94325e-06 0.207151 55.845 2.22006e-07 
325 1 0.285773 0.0356978 0.207193 55.845 1.42845e-07 
327 1 0.321418 0.0714272 0.20731 55.845 2.03397e-07 
329 1 0.357121 0.107102 0.207236 55.845 1.86e-07 
337 1 0.321446 8.32564e-06 0.207342 55.845 9.48989e-08 
339 1 0.357162 0.0356807 0.207271 55.845 3.19462e-07 
415 1 0.285739 0.107236 0.125413 55.845 -1.20311e-07 
425 1 0.249952 -5.7989e-05 0.125339 55.845 -9.10355e-08 
427 1 0.285777 0.0357338 0.125502 55.845 4.73859e-08 
428 1 0.285709 0.0715321 0.165755 55.845 -1.53996e-07 
429 1 0.321387 0.071447 0.125318 55.845 -2.5042e-08 
430 1 0.321472 0.107131 0.165827 55.845 -3.30487e-07 
431 1 0.357076 0.107149 0.12545 55.845 -2.63103e-08 
439 1 0.321348 2.89753e-05 0.125148 55.845 -3.11522e-09 
440 1 0.321472 0.0357396 0.16577 55.845 -3.07974e-07 
441 1 0.357088 0.0357032 0.125333 55.845 -8.56428e-08 
442 1 0.357059 0.0713452 0.165742 55.845 -3.01922e-07 
517 1 0.285714 0.107143 0.0416667 55.845 -5.24301e-07 
527 1 0.25 0 0.0416667 55.845 -5.52321e-07 
529 1 0.285714 0.0357143 0.0416667 55.845 -4.81757e-07 
530 1 0.285669 0.0714458 0.0839757 55.845 8.25839e-07 
531 1 0.321429 0.0714286 0.0416667 55.845 -4.69296e-07 
532 1 0.321417 0.10706 0.0841708 55.845 8.2303e-07 
533 1 0.357143 0.107143 0.0416667 55.845 -5.66076e-07 
603 1 0.357143 0.0714286 0 55.845 1.92569e-07 
541 1 0.321429 0 0.0416667 55.845 -5.60887e-07 
542 1 0.321341 0.0357322 0.0842848 55.845 8.02604e-07 
543 1 0.357143 0.0357143 0.0416667 55.845 -5.56737e-07 
544 1 0.357114 0.0714008 0.0839776 55.845 7.57111e-07 
602 1 0.321429 0.0357143 0 55.845 2.28376e-07 
596 1 0.285714 0.0714286 0 55.845 2.02957e-07 
597 1 0.321429 0.107143 0 55.845 1.87058e-07 
612 1 0.464286 0.0357143 0 55.845 6.24724e-08 
611 1 0.428571 0 0 55.845 1.89806e-07 
610 1 0.464286 0.107143 0 55.845 2.66467e-07 
609 1 0.428571 0.0714286 0 55.845 1.2375e-07 
608 1 0.392857 0.0357143 0 55.845 1.23573e-07 
341 1 0.392831 0.0714566 0.207199 55.845 2.66361e-07 
343 1 0.428481 0.107042 0.207135 55.845 2.58947e-07 
348 1 0.392838 2.30103e-05 0.207205 55.845 2.72315e-07 
350 1 0.428543 0.0357923 0.20721 55.845 1.56428e-07 
352 1 0.464197 0.0715043 0.20718 55.845 2.76029e-07 
355 1 0.46425 -1.08861e-05 0.207208 55.845 2.43387e-07 
443 1 0.392812 0.0714109 0.125335 55.845 -9.12189e-08 
444 1 0.392876 0.107143 0.165697 55.845 -2.13057e-07 
445 1 0.428545 0.107195 0.125235 55.845 -5.94787e-08 
604 1 0.392857 0.107143 0 55.845 2.52441e-07 
450 1 0.3928 2.26022e-06 0.125429 55.845 -5.12285e-08 
451 1 0.392814 0.0357226 0.16563 55.845 -2.45283e-07 
452 1 0.428497 0.0357319 0.125294 55.845 -1.38189e-07 
453 1 0.42853 0.0714323 0.165708 55.845 -2.93887e-07 
454 1 0.464314 0.0714531 0.125378 55.845 2.86156e-08 
455 1 0.464195 0.107203 0.16566 55.845 -5.10499e-07 
456 1 0.428544 3.40972e-05 0.165726 55.845 -2.51074e-07 
457 1 0.464201 -3.61521e-05 0.125354 55.845 -4.30387e-08 
458 1 0.46422 0.0357442 0.165493 55.845 -2.4146e-07 
545 1 0.392857 0.0714286 0.0416667 55.845 -6.4585e-07 
546 1 0.392879 0.107105 0.0840962 55.845 7.74113e-07 
547 1 0.428571 0.107143 0.0416667 55.845 -6.41582e-07 
552 1 0.392857 0 0.0416667 55.845 -3.98234e-07 
553 1 0.392813 0.0357536 0.0840633 55.845 7.68057e-07 
554 1 0.428571 0.0357143 0.0416667 55.845 -5.88584e-07 
555 1 0.42858 0.0714446 0.08416 55.845 7.17259e-07 
556 1 0.464286 0.0714286 0.0416667 55.845 -5.34796e-07 
557 1 0.46426 0.10716 0.0841404 55.845 7.18352e-07 
558 1 0.428546 -9.21588e-05 0.0839985 55.845 9.10994e-07 
559 1 0.464286 0 0.0416667 55.845 -5.03462e-07 
560 1 0.464337 0.0357386 0.0840508 55.845 8.67141e-07 
255 1 2.89294e-05 0.178573 0.207193 55.845 2.69526e-08 
257 1 0.0357025 0.214236 0.207439 55.845 7.00848e-08 
261 1 0.035805 0.142863 0.207256 55.845 1.13134e-07 
263 1 0.0714858 0.17857 0.207191 55.845 7.29827e-08 
265 1 0.107126 0.214324 0.207348 55.845 4.04916e-08 
273 1 0.107113 0.142838 0.207234 55.845 5.44706e-08 
357 1 -2.48733e-05 0.178505 0.125166 55.845 -1.88019e-07 
358 1 -1.34233e-05 0.214122 0.165836 55.845 -3.04142e-08 
359 1 0.0356165 0.214347 0.12543 55.845 -1.82359e-07 
360 1 0.0357321 0.249936 0.165804 55.845 3.30237e-08 
362 1 1.15814e-05 0.142895 0.165844 55.845 -1.31911e-07 
363 1 0.0356014 0.142918 0.125206 55.845 -7.23377e-08 
364 1 0.0356936 0.178615 0.165729 55.845 -1.28801e-07 
365 1 0.0715339 0.178464 0.125425 55.845 -6.00842e-08 
366 1 0.0714896 0.214237 0.165823 55.845 -5.99638e-08 
367 1 0.107203 0.214325 0.125373 55.845 -6.16716e-08 
368 1 0.107198 0.249936 0.165723 55.845 -7.56522e-08 
374 1 0.0713991 0.142802 0.16563 55.845 -1.9213e-07 
375 1 0.107129 0.142808 0.125516 55.845 1.32265e-07 
376 1 0.107138 0.178659 0.165727 55.845 -4.68541e-08 
459 1 0 0.178571 0.0416667 55.845 -6.05014e-07 
460 1 -0.00012095 0.214375 0.0842187 55.845 5.73823e-07 
461 1 0.0357143 0.214286 0.0416667 55.845 -3.43953e-07 
462 1 0.0357501 0.249996 0.0842274 55.845 7.05879e-07 
464 1 1.76929e-05 0.142803 0.0840683 55.845 6.85932e-07 
465 1 0.0357143 0.142857 0.0416667 55.845 -5.35086e-07 
466 1 0.0357533 0.178735 0.0841806 55.845 6.45864e-07 
467 1 0.0714286 0.178571 0.0416667 55.845 -4.08504e-07 
468 1 0.0714431 0.214145 0.0843008 55.845 7.28025e-07 
469 1 0.107143 0.214286 0.0416667 55.845 -3.02049e-07 
470 1 0.107137 0.250036 0.0841636 55.845 6.77185e-07 
476 1 0.0714256 0.142851 0.084146 55.845 6.09013e-07 
477 1 0.107143 0.142857 0.0416667 55.845 -4.02549e-07 
478 1 0.107118 0.178617 0.0840551 55.845 7.31173e-07 
561 1 0 0.214286 0 55.845 1.75848e-07 
562 1 0.0357143 0.25 0 55.845 2.13686e-07 
563 1 0 0.142857 0 55.845 1.26933e-07 
564 1 0.0357143 0.178571 0 55.845 1.12677e-07 
565 1 0.0714286 0.214286 0 55.845 2.65201e-07 
566 1 0.107143 0.25 0 55.845 2.81158e-08 
569 1 0.0714286 0.142857 0 55.845 1.6143e-07 
570 1 0.107143 0.178571 0 55.845 2.36553e-07 
275 1 0.142899 0.17861 0.207176 55.845 3.64614e-08 
277 1 0.178645 0.214275 0.20728 55.845 9.42977e-08 
287 1 0.178565 0.142844 0.207241 55.845 4.8874e-08 
289 1 0.214244 0.178527 0.207425 55.845 1.69147e-07 
291 1 0.250012 0.214308 0.207148 55.845 1.82284e-07 
301 1 0.250049 0.142902 0.207277 55.845 1.9984e-07 
377 1 0.14279 0.17857 0.125421 55.845 -4.42773e-08 
378 1 0.142947 0.214243 0.165647 55.845 -1.45017e-07 
379 1 0.178639 0.21425 0.125361 55.845 -1.5864e-07 
388 1 0.142797 0.142899 0.165896 55.845 -8.00708e-08 
389 1 0.17857 0.142824 0.125592 55.845 -1.05241e-07 
390 1 0.178525 0.178735 0.165807 55.845 -2.32626e-08 
391 1 0.214179 0.178566 0.125296 55.845 -1.83504e-07 
392 1 0.214273 0.214343 0.165565 55.845 -6.62984e-09 
393 1 0.250048 0.214332 0.125467 55.845 -1.18939e-07 
402 1 0.214276 0.1429 0.165756 55.845 -9.40619e-08 
403 1 0.250057 0.142947 0.12545 55.845 -1.15322e-07 
404 1 0.249925 0.178632 0.165595 55.845 -7.42716e-08 
479 1 0.142857 0.178571 0.0416667 55.845 -3.97986e-07 
480 1 0.142834 0.214348 0.0841198 55.845 7.46181e-07 
481 1 0.178571 0.214286 0.0416667 55.845 -3.10104e-07 
490 1 0.14284 0.142864 0.0841852 55.845 8.62208e-07 
491 1 0.178571 0.142857 0.0416667 55.845 -4.14171e-07 
492 1 0.178614 0.178584 0.084095 55.845 8.42498e-07 
493 1 0.214286 0.178571 0.0416667 55.845 -3.68012e-07 
494 1 0.214347 0.214263 0.0840297 55.845 7.5657e-07 
495 1 0.25 0.214286 0.0416667 55.845 -4.07851e-07 
504 1 0.214373 0.142885 0.0841416 55.845 7.25535e-07 
505 1 0.25 0.142857 0.0416667 55.845 -5.21905e-07 
506 1 0.25001 0.178679 0.084106 55.845 6.4871e-07 
571 1 0.142857 0.214286 0 55.845 -4.6632e-08 
576 1 0.142857 0.142857 0 55.845 2.55254e-07 
577 1 0.178571 0.178571 0 55.845 2.72484e-08 
578 1 0.214286 0.214286 0 55.845 5.22356e-08 
583 1 0.214286 0.142857 0 55.845 2.66811e-10 
584 1 0.25 0.178571 0 55.845 -5.05059e-08 
303 1 0.285647 0.178515 0.207272 55.845 1.68889e-07 
305 1 0.32153 0.214188 0.207284 55.845 2.41914e-07 
315 1 0.321347 0.142891 0.207441 55.845 1.82714e-07 
317 1 0.357119 0.178583 0.207248 55.845 2.52265e-07 
405 1 0.285721 0.178533 0.125465 55.845 -7.79625e-08 
406 1 0.285717 0.214327 0.165899 55.845 -1.31291e-07 
407 1 0.321413 0.214237 0.125394 55.845 -4.9602e-08 
416 1 0.285602 0.142808 0.165847 55.845 -2.17746e-07 
417 1 0.321348 0.142849 0.12542 55.845 -7.02333e-08 
418 1 0.321371 0.178514 0.165735 55.845 -3.48098e-07 
419 1 0.357172 0.178514 0.125445 55.845 -3.56528e-08 
420 1 0.357158 0.214337 0.165714 55.845 -2.87802e-07 
432 1 0.357073 0.142749 0.165882 55.845 -2.68775e-07 
507 1 0.285714 0.178571 0.0416667 55.845 -5.32935e-07 
508 1 0.285819 0.214205 0.0841639 55.845 8.43008e-07 
509 1 0.321429 0.214286 0.0416667 55.845 -5.69808e-07 
518 1 0.285714 0.142882 0.0840969 55.845 8.22732e-07 
519 1 0.321429 0.142857 0.0416667 55.845 -5.29759e-07 
520 1 0.321473 0.178457 0.0842455 55.845 8.20046e-07 
521 1 0.357143 0.178571 0.0416667 55.845 -4.92142e-07 
522 1 0.357152 0.214138 0.0841353 55.845 7.71144e-07 
534 1 0.35703 0.142783 0.0841062 55.845 8.46222e-07 
585 1 0.285714 0.214286 0 55.845 1.76168e-07 
590 1 0.285714 0.142857 0 55.845 -1.15679e-08 
591 1 0.321429 0.178571 0 55.845 1.51199e-07 
592 1 0.357143 0.214286 0 55.845 2.04284e-07 
598 1 0.357143 0.142857 0 55.845 3.49119e-07 
319 1 0.392984 0.214156 0.207355 55.845 2.7059e-07 
321 1 0.428718 0.249929 0.207236 55.845 3.57477e-07 
331 1 0.392849 0.142804 0.207321 55.845 3.10651e-07 
333 1 0.428544 0.178578 0.207222 55.845 2.40957e-07 
335 1 0.464247 0.214318 0.207421 55.845 3.57386e-07 
345 1 0.464312 0.142881 0.207068 55.845 3.83436e-07 
606 1 0.464286 0.178571 0 55.845 2.77545e-07 
421 1 0.392925 0.214174 0.125519 55.845 1.85456e-08 
422 1 0.392829 0.249935 0.16568 55.845 -3.53206e-07 
423 1 0.428612 0.250033 0.125506 55.845 1.51248e-08 
433 1 0.392765 0.142863 0.125498 55.845 2.94183e-08 
434 1 0.392868 0.178515 0.165936 55.845 -4.00589e-07 
435 1 0.428523 0.178624 0.125173 55.845 -5.43321e-08 
436 1 0.428614 0.214325 0.165867 55.845 -4.66367e-07 
437 1 0.464381 0.214426 0.125575 55.845 9.41566e-08 
605 1 0.428571 0.142857 0 55.845 3.53648e-07 
446 1 0.42858 0.142888 0.165628 55.845 -4.13193e-07 
447 1 0.464234 0.142909 0.12525 55.845 -4.08823e-08 
448 1 0.464192 0.178489 0.165664 55.845 -3.69013e-07 
523 1 0.392857 0.214286 0.0416667 55.845 -6.56283e-07 
524 1 0.392845 0.249993 0.084145 55.845 6.72185e-07 
525 1 0.428571 0.25 0.0416667 55.845 -7.75781e-07 
535 1 0.392857 0.142857 0.0416667 55.845 -4.64068e-07 
536 1 0.392916 0.178539 0.0842523 55.845 8.82084e-07 
537 1 0.428571 0.178571 0.0416667 55.845 -5.10138e-07 
538 1 0.428561 0.214358 0.0842844 55.845 7.30188e-07 
539 1 0.464286 0.214286 0.0416667 55.845 -5.40469e-07 
548 1 0.428503 0.142929 0.0840012 55.845 8.49887e-07 
549 1 0.464286 0.142857 0.0416667 55.845 -6.5124e-07 
550 1 0.464289 0.17864 0.0839334 55.845 8.54893e-07 
593 1 0.392857 0.25 0 55.845 1.9298e-07 
599 1 0.392857 0.178571 0 55.845 4.07129e-07 
600 1 0.428571 0.214286 0 55.845 3.70969e-07 
3 1 -1.37341e-05 0.107162 0.460167 55.845 -3.46128e-07 
7 1 -8.40351e-05 0.0356781 0.460364 55.845 -5.07308e-07 
8 1 0.0356623 0.0714591 0.460339 55.845 -4.60412e-07 
9 1 0.0712754 0.107245 0.460466 55.845 -5.37623e-07 
13 1 0.0356458 7.3581e-06 0.460292 55.845 -5.93275e-07 
14 1 0.0715148 0.0356968 0.460293 55.845 -5.19977e-07 
15 1 0.107109 0.0714703 0.460458 55.845 -6.83905e-07 
20 1 0.107019 9.71473e-05 0.460259 55.845 -5.84432e-07 
55 1 -4.43564e-05 0.107207 0.376487 55.845 5.42344e-08 
63 1 -5.21108e-06 0.0357077 0.376652 55.845 3.1708e-07 
64 1 -1.70978e-05 0.0713133 0.418934 55.845 5.0585e-08 
65 1 0.0356866 0.0714311 0.376867 55.845 2.29729e-07 
66 1 0.0357289 0.107139 0.418882 55.845 8.7892e-08 
67 1 0.0714077 0.10723 0.376839 55.845 3.94595e-07 
74 1 -9.57382e-05 6.05261e-06 0.418952 55.845 -3.00061e-08 
75 1 0.0356657 7.50829e-05 0.376598 55.845 2.77806e-07 
76 1 0.0356786 0.0357891 0.419067 55.845 3.30523e-08 
77 1 0.0713805 0.0358296 0.376775 55.845 2.20141e-07 
78 1 0.0713715 0.0714398 0.418893 55.845 -5.23182e-08 
79 1 0.107089 0.071534 0.376713 55.845 4.25436e-07 
80 1 0.107034 0.107176 0.419033 55.845 4.81898e-09 
88 1 0.0713172 3.93368e-05 0.418762 55.845 7.21351e-08 
89 1 0.107078 9.95572e-05 0.376597 55.845 2.95304e-07 
90 1 0.107097 0.0358655 0.418602 55.845 7.74451e-08 
157 1 -8.22865e-05 0.107176 0.291971 55.845 -1.07923e-08 
165 1 -3.72851e-05 0.0356335 0.291799 55.845 -6.45089e-08 
166 1 7.64742e-06 0.071497 0.334237 55.845 -4.55835e-07 
167 1 0.0356891 0.0713523 0.291693 55.845 -2.95635e-09 
168 1 0.0358009 0.10712 0.334271 55.845 -3.42527e-07 
169 1 0.0714708 0.107135 0.29176 55.845 1.73444e-07 
176 1 -0.000136548 -2.02694e-05 0.334432 55.845 -1.52583e-07 
177 1 0.0357177 4.55331e-05 0.291817 55.845 7.56951e-08 
178 1 0.0356843 0.0357563 0.334299 55.845 -2.69506e-07 
179 1 0.0713905 0.0357566 0.291894 55.845 -9.44207e-08 
180 1 0.0714033 0.0714634 0.334309 55.845 -2.66554e-07 
181 1 0.107171 0.0714525 0.291697 55.845 8.01503e-08 
182 1 0.107093 0.107073 0.334308 55.845 -3.31792e-07 
190 1 0.0714452 -2.96353e-05 0.334189 55.845 -2.47975e-07 
191 1 0.107132 5.23968e-05 0.291777 55.845 -9.05807e-08 
192 1 0.107121 0.0358321 0.334275 55.845 -2.44807e-07 
268 1 -4.70187e-05 0.0714229 0.249348 55.845 -1.31192e-07 
270 1 0.0357404 0.107087 0.24939 55.845 3.71321e-08 
278 1 -6.56483e-05 -2.10466e-05 0.249519 55.845 5.9684e-08 
280 1 0.0357398 0.0357411 0.249141 55.845 -4.87288e-08 
282 1 0.0714441 0.0713341 0.249358 55.845 1.68515e-07 
284 1 0.107155 0.107114 0.249331 55.845 3.35054e-08 
292 1 0.0714537 6.09429e-05 0.24932 55.845 -4.70864e-08 
294 1 0.107182 0.0356367 0.249147 55.845 1.60185e-07 
16 1 0.142843 0.107152 0.460406 55.845 -6.88976e-07 
21 1 0.142803 0.0357403 0.460352 55.845 -5.38953e-07 
22 1 0.178498 0.0713958 0.460571 55.845 -5.42712e-07 
23 1 0.214229 0.107156 0.460401 55.845 -5.64047e-07 
27 1 0.178561 -3.07584e-05 0.460355 55.845 -4.22988e-07 
28 1 0.214227 0.0357254 0.46056 55.845 -4.35791e-07 
29 1 0.249998 0.0714691 0.460489 55.845 -4.45809e-07 
81 1 0.142826 0.107136 0.376845 55.845 3.85343e-07 
91 1 0.142793 0.0356207 0.376801 55.845 3.85509e-07 
92 1 0.142802 0.0714616 0.418992 55.845 1.47835e-08 
93 1 0.178494 0.0713003 0.376803 55.845 3.0407e-07 
94 1 0.178533 0.107133 0.418972 55.845 -7.93439e-08 
95 1 0.214199 0.107124 0.376948 55.845 2.9823e-07 
102 1 0.142849 0.000125543 0.419027 55.845 -9.57161e-09 
103 1 0.178518 -0.000101584 0.376812 55.845 2.31151e-07 
104 1 0.178531 0.0356791 0.419149 55.845 2.33362e-08 
105 1 0.21424 0.0357055 0.376872 55.845 2.96616e-07 
106 1 0.214191 0.0713651 0.419089 55.845 2.24386e-08 
107 1 0.250068 0.0714622 0.376892 55.845 3.34162e-07 
108 1 0.249977 0.107144 0.419103 55.845 -2.89227e-08 
118 1 0.214363 -2.1258e-05 0.419085 55.845 -5.32097e-08 
120 1 0.249981 0.0356156 0.419043 55.845 -1.87427e-07 
183 1 0.142847 0.107131 0.29198 55.845 -2.25474e-08 
193 1 0.142794 0.0357736 0.29177 55.845 -3.78786e-09 
194 1 0.142838 0.0714088 0.334497 55.845 -2.32735e-07 
195 1 0.178566 0.0713049 0.292045 55.845 -4.63033e-08 
196 1 0.178631 0.107125 0.334417 55.845 -1.55161e-07 
197 1 0.214201 0.107066 0.292103 55.845 -1.09173e-07 
204 1 0.142824 -2.53646e-05 0.334118 55.845 -3.69346e-07 
205 1 0.17855 -0.000120435 0.291814 55.845 5.35548e-08 
206 1 0.178574 0.0356476 0.334212 55.845 -3.43728e-07 
207 1 0.214344 0.0357746 0.291832 55.845 1.76911e-08 
208 1 0.214347 0.0713453 0.334527 55.845 -2.85187e-07 
209 1 0.25001 0.0714407 0.291957 55.845 -2.41099e-07 
210 1 0.250026 0.107043 0.334354 55.845 -1.975e-07 
220 1 0.214258 -0.00013254 0.334237 55.845 -2.39968e-07 
222 1 0.250044 0.0356358 0.334407 55.845 -2.60761e-07 
296 1 0.142934 0.071471 0.249229 55.845 2.0666e-07 
298 1 0.178555 0.107183 0.249064 55.845 4.66358e-08 
306 1 0.142785 -2.4483e-05 0.249098 55.845 3.38768e-08 
308 1 0.178633 0.0356942 0.249289 55.845 9.33147e-08 
310 1 0.214216 0.0714042 0.249587 55.845 -1.04196e-07 
312 1 0.249806 0.107162 0.249342 55.845 -1.36715e-08 
322 1 0.214383 -2.24836e-05 0.249258 55.845 9.54831e-08 
324 1 0.250155 0.035735 0.249328 55.845 -5.86175e-08 
30 1 0.28569 0.107086 0.460507 55.845 -4.42841e-07 
35 1 0.25014 -9.19499e-06 0.460266 55.845 -4.48705e-07 
36 1 0.285664 0.0356783 0.460419 55.845 -5.28135e-07 
37 1 0.321366 0.071349 0.460317 55.845 -4.79983e-07 
38 1 0.357191 0.107029 0.460532 55.845 -5.05665e-07 
42 1 0.321443 5.11586e-05 0.460455 55.845 -3.71581e-07 
43 1 0.357091 0.0356492 0.460251 55.845 -5.48167e-07 
109 1 0.285695 0.10712 0.376716 55.845 2.94488e-07 
119 1 0.250082 -2.31915e-05 0.376764 55.845 2.09412e-07 
121 1 0.285694 0.0356812 0.376661 55.845 3.50831e-07 
122 1 0.285721 0.0713571 0.419085 55.845 -1.60345e-08 
123 1 0.321392 0.0714403 0.37663 55.845 3.16522e-07 
124 1 0.321435 0.107143 0.41896 55.845 -8.33686e-09 
125 1 0.357197 0.107215 0.376738 55.845 2.8174e-07 
133 1 0.321482 -5.6884e-05 0.376712 55.845 2.37094e-07 
134 1 0.321464 0.0357023 0.418775 55.845 -6.66002e-08 
135 1 0.357111 0.035678 0.376579 55.845 3.39345e-07 
136 1 0.357011 0.0714087 0.418861 55.845 -1.097e-07 
211 1 0.285719 0.10712 0.291769 55.845 7.63866e-09 
221 1 0.249924 -0.000131939 0.291701 55.845 7.78196e-08 
223 1 0.285746 0.0356794 0.29185 55.845 -6.92256e-08 
224 1 0.285646 0.0714822 0.3342 55.845 -3.19493e-07 
225 1 0.321332 0.0714651 0.291903 55.845 -3.10433e-08 
226 1 0.321426 0.107108 0.334359 55.845 -2.82071e-07 
227 1 0.357026 0.10711 0.291895 55.845 -1.24349e-07 
235 1 0.321509 5.35887e-05 0.291859 55.845 -3.88927e-08 
236 1 0.321437 0.0357108 0.334232 55.845 -2.56161e-07 
237 1 0.357138 0.035687 0.291766 55.845 7.58248e-08 
238 1 0.35718 0.071481 0.334311 55.845 -1.89241e-07 
326 1 0.285792 0.0714973 0.249263 55.845 2.32975e-08 
328 1 0.321495 0.107126 0.249278 55.845 1.23338e-07 
338 1 0.32146 0.0357382 0.249206 55.845 -1.0217e-07 
340 1 0.35707 0.0713801 0.249182 55.845 7.02289e-08 
44 1 0.392826 0.0712812 0.460179 55.845 -4.65751e-07 
45 1 0.42852 0.10716 0.460385 55.845 -4.84218e-07 
47 1 0.392927 6.59723e-05 0.460231 55.845 -5.08835e-07 
48 1 0.428634 0.0357085 0.46043 55.845 -4.84338e-07 
49 1 0.464253 0.0715036 0.460343 55.845 -3.79142e-07 
50 1 0.464332 4.71078e-05 0.460399 55.845 -4.03736e-07 
137 1 0.392847 0.0713754 0.376659 55.845 3.62104e-07 
138 1 0.392828 0.107038 0.419012 55.845 7.32719e-09 
139 1 0.428536 0.107121 0.376709 55.845 3.08333e-07 
144 1 0.392866 -2.29224e-05 0.376635 55.845 4.00493e-07 
145 1 0.392801 0.0357486 0.418885 55.845 -8.69294e-08 
146 1 0.428493 0.0356745 0.376793 55.845 2.57172e-07 
147 1 0.428535 0.071522 0.418986 55.845 -1.2962e-07 
148 1 0.464287 0.071391 0.377031 55.845 3.32653e-07 
149 1 0.464268 0.107093 0.418959 55.845 -5.24237e-08 
150 1 0.42866 -5.80254e-05 0.418882 55.845 -4.59276e-08 
151 1 0.46426 -2.9545e-05 0.376747 55.845 2.22583e-07 
152 1 0.464208 0.0357667 0.419063 55.845 -6.45246e-08 
239 1 0.392906 0.0715042 0.291802 55.845 1.10199e-08 
240 1 0.392855 0.107211 0.33411 55.845 -1.73093e-07 
241 1 0.428497 0.107104 0.291702 55.845 -5.23316e-09 
246 1 0.39291 0.000108335 0.291694 55.845 -1.33886e-07 
247 1 0.392829 0.0357933 0.334314 55.845 -7.88459e-08 
248 1 0.428579 0.035646 0.291877 55.845 1.45942e-08 
249 1 0.428585 0.0713514 0.334256 55.845 -1.79573e-07 
250 1 0.464219 0.0713639 0.291756 55.845 5.12206e-08 
251 1 0.464243 0.107147 0.334271 55.845 -3.08459e-07 
252 1 0.428612 -5.70645e-05 0.334427 55.845 -1.82822e-07 
253 1 0.464301 -3.44503e-05 0.291914 55.845 -1.39908e-08 
254 1 0.46432 0.0356811 0.334495 55.845 -1.76026e-07 
342 1 0.39286 0.107163 0.249221 55.845 -4.61764e-08 
349 1 0.392845 0.0357958 0.249164 55.845 -2.53807e-08 
351 1 0.428632 0.0713488 0.249326 55.845 1.18403e-07 
353 1 0.464122 0.107123 0.249281 55.845 8.57946e-08 
354 1 0.428648 -1.8372e-07 0.249261 55.845 -1.03141e-07 
356 1 0.464268 0.0357008 0.249423 55.845 1.08032e-08 
1 1 5.30321e-05 0.178593 0.460394 55.845 -4.86763e-07 
2 1 0.0357486 0.214339 0.460336 55.845 -2.47122e-07 
4 1 0.035668 0.142988 0.460338 55.845 -4.75353e-07 
5 1 0.0713114 0.178596 0.460677 55.845 -6.3458e-07 
6 1 0.107177 0.214266 0.460479 55.845 -5.95591e-07 
10 1 0.107035 0.142794 0.460524 55.845 -5.88018e-07 
51 1 4.96174e-05 0.178634 0.376595 55.845 9.17621e-08 
52 1 6.41033e-05 0.214385 0.418866 55.845 1.84579e-07 
53 1 0.0357192 0.214288 0.37685 55.845 8.23648e-08 
54 1 0.0357584 0.250063 0.41906 55.845 7.29461e-09 
56 1 -6.0423e-05 0.142966 0.418963 55.845 4.22004e-08 
57 1 0.0356744 0.142821 0.37669 55.845 2.06062e-07 
58 1 0.0357339 0.178559 0.418978 55.845 3.10072e-08 
59 1 0.0714332 0.17863 0.376964 55.845 1.57033e-07 
60 1 0.0714452 0.214236 0.419104 55.845 2.13571e-07 
61 1 0.107108 0.21422 0.376923 55.845 3.15343e-07 
62 1 0.107133 0.25009 0.419059 55.845 5.18452e-08 
68 1 0.0712671 0.142891 0.419125 55.845 2.94948e-08 
69 1 0.107095 0.142821 0.376944 55.845 4.33477e-07 
70 1 0.107073 0.178555 0.41908 55.845 -3.26133e-08 
153 1 9.89256e-07 0.178611 0.291579 55.845 3.08402e-07 
154 1 5.33985e-06 0.214342 0.334403 55.845 -2.11198e-07 
155 1 0.0357394 0.214249 0.291825 55.845 6.73427e-08 
156 1 0.0357533 0.249932 0.334135 55.845 -4.43895e-07 
158 1 0.000114897 0.142856 0.334115 55.845 -2.62291e-07 
159 1 0.0357186 0.142831 0.291854 55.845 2.51046e-07 
160 1 0.0357062 0.178542 0.334216 55.845 -2.65213e-07 
161 1 0.0713458 0.178614 0.291808 55.845 1.34833e-09 
162 1 0.0714031 0.214205 0.334451 55.845 -3.5098e-07 
163 1 0.107169 0.214271 0.291782 55.845 -1.63864e-08 
164 1 0.10712 0.249963 0.334182 55.845 -1.57346e-07 
170 1 0.0714814 0.142843 0.334454 55.845 -3.28453e-07 
171 1 0.107117 0.142796 0.291957 55.845 -7.68703e-08 
172 1 0.107051 0.178614 0.334431 55.845 -3.36724e-07 
256 1 2.18616e-05 0.214305 0.249302 55.845 1.25746e-07 
258 1 0.0357593 0.24994 0.249278 55.845 -6.99478e-08 
260 1 8.92738e-05 0.142913 0.249205 55.845 5.00616e-08 
262 1 0.0357116 0.178613 0.249139 55.845 1.88376e-07 
264 1 0.0714921 0.214352 0.249372 55.845 -1.064e-07 
266 1 0.107318 0.250079 0.249085 55.845 7.0259e-08 
272 1 0.0714701 0.142906 0.249244 55.845 7.68647e-08 
274 1 0.107178 0.178603 0.249305 55.845 -1.62196e-07 
11 1 0.142821 0.178498 0.460469 55.845 -4.621e-07 
12 1 0.17848 0.214298 0.460321 55.845 -5.79102e-07 
17 1 0.178575 0.142927 0.460471 55.845 -4.63284e-07 
18 1 0.214255 0.178569 0.460449 55.845 -3.93719e-07 
19 1 0.249971 0.21439 0.460382 55.845 -4.6815e-07 
24 1 0.249936 0.142754 0.46047 55.845 -6.02197e-07 
71 1 0.142724 0.178518 0.376876 55.845 2.71303e-07 
72 1 0.142847 0.21427 0.418984 55.845 -6.45428e-08 
73 1 0.178539 0.214267 0.37679 55.845 2.00362e-07 
82 1 0.142788 0.142878 0.419046 55.845 7.31419e-08 
83 1 0.178618 0.142826 0.376856 55.845 1.61449e-07 
84 1 0.178525 0.178535 0.418951 55.845 -2.74069e-08 
85 1 0.21424 0.178532 0.376608 55.845 2.50366e-07 
86 1 0.214286 0.21423 0.419024 55.845 -1.00721e-07 
87 1 0.250001 0.214261 0.376858 55.845 2.11671e-07 
96 1 0.214239 0.142856 0.418965 55.845 -2.85032e-08 
97 1 0.249909 0.14284 0.376806 55.845 3.3552e-07 
98 1 0.249998 0.178521 0.418944 55.845 -1.34462e-07 
173 1 0.142812 0.178674 0.29174 55.845 -5.70551e-08 
174 1 0.142832 0.214242 0.334396 55.845 -1.57125e-07 
175 1 0.178494 0.214289 0.291803 55.845 1.56369e-07 
184 1 0.142852 0.142911 0.334496 55.845 -2.85528e-07 
185 1 0.178604 0.142837 0.29201 55.845 -1.8316e-07 
186 1 0.178537 0.178593 0.334359 55.845 -1.64971e-07 
187 1 0.214263 0.178489 0.291775 55.845 1.18368e-08 
188 1 0.214286 0.214225 0.334335 55.845 6.60769e-08 
189 1 0.250017 0.214233 0.291756 55.845 -3.02649e-08 
198 1 0.21438 0.142863 0.334191 55.845 -6.99468e-08 
199 1 0.250094 0.142811 0.291917 55.845 4.80457e-08 
200 1 0.249958 0.1785 0.334267 55.845 1.0407e-07 
276 1 0.142826 0.214253 0.249334 55.845 6.37126e-08 
286 1 0.142858 0.142798 0.249269 55.845 -1.02868e-07 
288 1 0.178488 0.178631 0.249392 55.845 -2.3986e-07 
290 1 0.214254 0.214261 0.249138 55.845 -1.7355e-07 
300 1 0.214256 0.142887 0.249228 55.845 -3.61792e-08 
302 1 0.249932 0.178582 0.249294 55.845 -1.37808e-07 
25 1 0.285735 0.178533 0.460513 55.845 -5.26693e-07 
26 1 0.321452 0.214328 0.460619 55.845 -4.77267e-07 
31 1 0.321493 0.142739 0.460372 55.845 -5.35527e-07 
32 1 0.357222 0.178609 0.460503 55.845 -4.2185e-07 
99 1 0.285767 0.178522 0.376788 55.845 3.70958e-07 
100 1 0.285653 0.214262 0.419005 55.845 -5.59149e-08 
101 1 0.321457 0.214275 0.376798 55.845 3.36798e-07 
110 1 0.285739 0.142779 0.419038 55.845 -6.72783e-08 
111 1 0.321443 0.142961 0.37688 55.845 3.5467e-07 
112 1 0.32144 0.178579 0.41911 55.845 -5.90986e-08 
113 1 0.357203 0.178569 0.3768 55.845 3.51273e-07 
114 1 0.357146 0.214243 0.419016 55.845 -3.21514e-08 
126 1 0.3572 0.142797 0.418958 55.845 -4.2386e-08 
201 1 0.285759 0.178589 0.291743 55.845 3.72172e-08 
202 1 0.285681 0.214238 0.334214 55.845 -3.08354e-07 
203 1 0.321397 0.214228 0.291856 55.845 -1.93478e-08 
212 1 0.285721 0.142867 0.334437 55.845 -1.13261e-07 
213 1 0.321383 0.142818 0.291896 55.845 -5.15795e-08 
214 1 0.321468 0.178672 0.334509 55.845 -2.21195e-07 
215 1 0.35718 0.178569 0.291903 55.845 -1.30593e-07 