ITEM: TIMESTEP
6300
ITEM: NUMBER OF ATOMS
5880
ITEM: BOX BOUNDS pp pp ff
-28.0108 28.0108
-28.0109 28.0109
0 34.092
ITEM: ATOMS id type xs ys zs mass q 
259 1 6.5203e-05 0.10707 0.208387 55.845 1.25929e-07 
267 1 3.45209e-05 0.0356598 0.208525 55.845 1.96628e-07 
269 1 0.0356823 0.0714678 0.208267 55.845 1.95569e-07 
271 1 0.071423 0.10707 0.208431 55.845 1.39289e-07 
279 1 0.0356507 5.92235e-05 0.208373 55.845 2.26808e-07 
281 1 0.0714039 0.035695 0.208267 55.845 1.5341e-07 
283 1 0.107156 0.0713458 0.208317 55.845 2.709e-07 
293 1 0.10716 7.92284e-05 0.208346 55.845 2.2533e-07 
361 1 3.84601e-06 0.107097 0.124729 55.845 5.97737e-09 
369 1 -6.69159e-05 0.0357485 0.124727 55.845 3.67897e-08 
370 1 -4.42017e-05 0.0713973 0.166574 55.845 1.39802e-09 
371 1 0.0356804 0.0714271 0.12461 55.845 -3.78301e-09 
372 1 0.0357068 0.107189 0.166668 55.845 8.6544e-08 
373 1 0.0715404 0.107071 0.1245 55.845 5.40913e-08 
380 1 -4.6744e-05 6.41061e-05 0.166515 55.845 -1.31997e-08 
381 1 0.0357675 4.07927e-05 0.12474 55.845 6.7105e-08 
382 1 0.0356631 0.0358124 0.166699 55.845 7.26246e-08 
383 1 0.0714476 0.0357762 0.124563 55.845 3.10977e-08 
384 1 0.0714306 0.0714823 0.166743 55.845 -1.78493e-09 
385 1 0.10715 0.071488 0.124669 55.845 9.76525e-08 
386 1 0.10717 0.107142 0.166685 55.845 -5.16756e-09 
394 1 0.0713581 1.94712e-05 0.166569 55.845 3.31727e-08 
395 1 0.107213 -2.90233e-05 0.124803 55.845 3.98741e-09 
396 1 0.107052 0.0357046 0.166558 55.845 3.01839e-08 
463 1 0 0.107143 0.0416667 55.845 -5.54347e-08 
471 1 0 0.0357143 0.0416667 55.845 -5.60346e-08 
472 1 -6.40794e-06 0.0714711 0.0835376 55.845 -2.75452e-07 
473 1 0.0357143 0.0714286 0.0416667 55.845 -1.21638e-07 
474 1 0.035814 0.107127 0.0834813 55.845 -3.26385e-07 
475 1 0.0714286 0.107143 0.0416667 55.845 -8.68085e-08 
482 1 -6.43834e-06 5.51146e-05 0.083527 55.845 -2.27907e-07 
483 1 0.0357143 0 0.0416667 55.845 -1.44048e-07 
484 1 0.0356838 0.0357057 0.0835831 55.845 -2.72484e-07 
485 1 0.0714286 0.0357143 0.0416667 55.845 -1.15274e-07 
486 1 0.0713559 0.0714406 0.0835317 55.845 -2.39748e-07 
487 1 0.107143 0.0714286 0.0416667 55.845 -7.92826e-08 
488 1 0.107179 0.107161 0.0835617 55.845 -2.3155e-07 
496 1 0.0715085 8.8894e-05 0.0835077 55.845 -2.73562e-07 
497 1 0.107143 0 0.0416667 55.845 -2.07494e-07 
498 1 0.107058 0.0357718 0.0834883 55.845 -1.85714e-07 
567 1 0 0.0714286 0 55.845 -1.58011e-07 
568 1 0.0357143 0.107143 0 55.845 -1.03432e-07 
572 1 0 0 0 55.845 -1.28782e-08 
573 1 0.0357143 0.0357143 0 55.845 -7.02231e-08 
574 1 0.0714286 0.0714286 0 55.845 -2.55897e-08 
575 1 0.107143 0.107143 0 55.845 -7.57249e-08 
579 1 0.0714286 0 0 55.845 -6.62447e-08 
580 1 0.107143 0.0357143 0 55.845 -6.31002e-08 
285 1 0.142838 0.10708 0.208192 55.845 2.9716e-07 
295 1 0.142805 0.0356384 0.208257 55.845 2.62632e-07 
297 1 0.178491 0.071377 0.208266 55.845 3.15228e-07 
299 1 0.21423 0.107103 0.208289 55.845 2.60862e-07 
307 1 0.178629 4.0074e-05 0.208218 55.845 2.87646e-07 
309 1 0.214264 0.0356578 0.208369 55.845 2.55638e-07 
311 1 0.249992 0.0714497 0.208285 55.845 2.6236e-07 
387 1 0.142854 0.107084 0.124663 55.845 3.90576e-08 
397 1 0.142783 0.0357172 0.124594 55.845 6.97775e-08 
398 1 0.142855 0.0713378 0.166585 55.845 -4.40606e-09 
399 1 0.178659 0.0713232 0.124517 55.845 6.35075e-08 
400 1 0.178545 0.107019 0.166671 55.845 4.74596e-09 
401 1 0.214253 0.10711 0.124728 55.845 8.82967e-08 
408 1 0.142943 -7.8747e-06 0.166504 55.845 4.49614e-08 
409 1 0.178692 1.37991e-05 0.124568 55.845 6.19703e-09 
410 1 0.17854 0.0356951 0.166462 55.845 1.89129e-08 
411 1 0.214259 0.0357574 0.124628 55.845 6.2055e-08 
412 1 0.214266 0.0713766 0.166445 55.845 -1.32687e-08 
413 1 0.25 0.0713959 0.124535 55.845 -3.00867e-08 
414 1 0.250075 0.107189 0.166552 55.845 7.16915e-08 
424 1 0.214281 -0.00012045 0.166594 55.845 -1.56816e-08 
426 1 0.249943 0.0357233 0.166631 55.845 1.01331e-08 
489 1 0.142857 0.107143 0.0416667 55.845 -5.50111e-08 
499 1 0.142857 0.0357143 0.0416667 55.845 -1.10129e-07 
500 1 0.142912 0.0713462 0.0834729 55.845 -1.75393e-07 
501 1 0.178571 0.0714286 0.0416667 55.845 -1.38123e-07 
502 1 0.178576 0.107086 0.0834825 55.845 -1.85199e-07 
503 1 0.214286 0.107143 0.0416667 55.845 -1.43672e-07 
510 1 0.142862 1.19924e-05 0.0835531 55.845 -2.08599e-07 
511 1 0.178571 0 0.0416667 55.845 -1.55202e-07 
512 1 0.178574 0.0356675 0.0834283 55.845 -1.97548e-07 
513 1 0.214286 0.0357143 0.0416667 55.845 -1.57843e-07 
514 1 0.214281 0.0714412 0.0834006 55.845 -2.77387e-07 
515 1 0.25 0.0714286 0.0416667 55.845 -1.85232e-07 
516 1 0.250047 0.107168 0.0835988 55.845 -2.7768e-07 
526 1 0.21431 2.29389e-05 0.0834577 55.845 -2.0298e-07 
528 1 0.249994 0.0356751 0.0832861 55.845 -2.56863e-07 
581 1 0.142857 0.0714286 0 55.845 3.27905e-08 
582 1 0.178571 0.107143 0 55.845 -7.91892e-08 
586 1 0.142857 0 0 55.845 -3.47612e-08 
587 1 0.178571 0.0357143 0 55.845 -7.13291e-08 
588 1 0.214286 0.0714286 0 55.845 -4.18116e-08 
589 1 0.25 0.107143 0 55.845 -1.21972e-07 
594 1 0.214286 0 0 55.845 -3.54069e-08 
595 1 0.25 0.0357143 0 55.845 -1.02279e-07 
313 1 0.28571 0.107168 0.20828 55.845 1.89464e-07 
323 1 0.24994 6.57925e-06 0.208501 55.845 2.65284e-07 
325 1 0.285646 0.0356942 0.208404 55.845 1.95426e-07 
327 1 0.321483 0.0713846 0.208313 55.845 1.38164e-07 
329 1 0.357162 0.10707 0.208268 55.845 1.72759e-07 
337 1 0.321493 -0.000129291 0.208296 55.845 1.63931e-07 
339 1 0.357175 0.0355947 0.208194 55.845 1.91541e-07 
415 1 0.285775 0.107178 0.124766 55.845 7.31928e-08 
425 1 0.249917 6.98792e-05 0.12462 55.845 1.69266e-08 
427 1 0.285684 0.0356724 0.124737 55.845 7.40152e-08 
428 1 0.285716 0.0714455 0.166696 55.845 7.03553e-08 
429 1 0.321392 0.0714568 0.124629 55.845 6.75323e-08 
430 1 0.321452 0.107206 0.166503 55.845 1.19786e-07 
431 1 0.357206 0.107231 0.124562 55.845 1.48153e-07 
439 1 0.321535 -2.31964e-05 0.124626 55.845 1.11435e-07 
440 1 0.321386 0.0356728 0.166521 55.845 1.05874e-07 
441 1 0.357059 0.0355949 0.124728 55.845 1.52763e-07 
442 1 0.357155 0.0714166 0.166657 55.845 1.30348e-07 
517 1 0.285714 0.107143 0.0416667 55.845 -6.4154e-08 
527 1 0.25 0 0.0416667 55.845 -8.05948e-08 
529 1 0.285714 0.0357143 0.0416667 55.845 -2.59862e-08 
530 1 0.285715 0.0714269 0.0836006 55.845 -2.89454e-07 
531 1 0.321429 0.0714286 0.0416667 55.845 -4.68449e-08 
532 1 0.321388 0.107173 0.0835355 55.845 -2.77067e-07 
533 1 0.357143 0.107143 0.0416667 55.845 -4.70177e-08 
603 1 0.357143 0.0714286 0 55.845 2.46283e-09 
541 1 0.321429 0 0.0416667 55.845 -4.06246e-08 
542 1 0.321403 0.0356727 0.0834797 55.845 -2.08141e-07 
543 1 0.357143 0.0357143 0.0416667 55.845 7.54733e-09 
544 1 0.357089 0.0713732 0.0834216 55.845 -1.72398e-07 
602 1 0.321429 0.0357143 0 55.845 -1.47183e-08 
596 1 0.285714 0.0714286 0 55.845 -1.27731e-07 
597 1 0.321429 0.107143 0 55.845 -1.07142e-07 
612 1 0.464286 0.0357143 0 55.845 2.32403e-08 
611 1 0.428571 0 0 55.845 -4.99707e-08 
610 1 0.464286 0.107143 0 55.845 -5.59268e-09 
609 1 0.428571 0.0714286 0 55.845 7.16155e-09 
608 1 0.392857 0.0357143 0 55.845 -2.21235e-09 
341 1 0.392834 0.0714375 0.208174 55.845 2.15392e-07 
343 1 0.428638 0.107181 0.208259 55.845 1.67663e-07 
348 1 0.392948 -4.70812e-05 0.208431 55.845 2.91067e-07 
350 1 0.428619 0.0356719 0.20832 55.845 2.61105e-07 
352 1 0.464215 0.0714385 0.208445 55.845 2.33933e-07 
355 1 0.464338 1.04621e-05 0.208429 55.845 2.46203e-07 
443 1 0.392831 0.0715017 0.124768 55.845 1.32206e-07 
444 1 0.392851 0.107205 0.166518 55.845 8.76276e-08 
445 1 0.428621 0.107149 0.124608 55.845 8.43692e-08 
604 1 0.392857 0.107143 0 55.845 -1.05559e-08 
450 1 0.392896 -6.50132e-05 0.124653 55.845 -2.75421e-09 
451 1 0.392917 0.0357175 0.166477 55.845 -4.29625e-09 
452 1 0.428573 0.0356851 0.124641 55.845 3.89716e-08 
453 1 0.428628 0.0714442 0.166537 55.845 1.09047e-07 
454 1 0.464402 0.0714513 0.124894 55.845 4.61005e-08 
455 1 0.464321 0.107152 0.166497 55.845 1.07977e-07 
456 1 0.428528 -1.24452e-05 0.166585 55.845 8.69119e-08 
457 1 0.464227 -8.06068e-05 0.12455 55.845 2.77889e-08 
458 1 0.464407 0.0357351 0.166698 55.845 1.88206e-08 
545 1 0.392857 0.0714286 0.0416667 55.845 2.40156e-08 
546 1 0.39289 0.107129 0.0834387 55.845 -2.28598e-07 
547 1 0.428571 0.107143 0.0416667 55.845 -1.79435e-08 
552 1 0.392857 0 0.0416667 55.845 -1.66238e-07 
553 1 0.392916 0.0356972 0.0835668 55.845 -1.5673e-07 
554 1 0.428571 0.0357143 0.0416667 55.845 -1.17031e-07 
555 1 0.428649 0.0714224 0.0835386 55.845 -1.45445e-07 
556 1 0.464286 0.0714286 0.0416667 55.845 -7.72201e-08 
557 1 0.464329 0.107141 0.0835346 55.845 -2.14898e-07 
558 1 0.428579 -3.62009e-05 0.0834537 55.845 -1.44233e-07 
559 1 0.464286 0 0.0416667 55.845 -2.2909e-07 
560 1 0.464227 0.0358135 0.0834662 55.845 -1.50842e-07 
255 1 -8.27064e-05 0.178565 0.208275 55.845 1.59626e-07 
257 1 0.0356811 0.214188 0.208362 55.845 1.96218e-07 
261 1 0.0356764 0.142798 0.208407 55.845 1.32481e-07 
263 1 0.0714847 0.178521 0.208412 55.845 2.19408e-07 
265 1 0.107144 0.214283 0.208187 55.845 3.41517e-07 
273 1 0.107127 0.142811 0.208426 55.845 2.74213e-07 
357 1 -4.54567e-05 0.178545 0.124621 55.845 6.87113e-08 
358 1 5.36475e-05 0.214318 0.166481 55.845 5.55021e-08 
359 1 0.0357351 0.214236 0.12466 55.845 1.0945e-07 
360 1 0.0357188 0.249966 0.166581 55.845 6.10168e-09 
362 1 -2.47327e-05 0.142806 0.166628 55.845 7.40672e-08 
363 1 0.0357821 0.142878 0.124645 55.845 5.53817e-08 
364 1 0.0357604 0.178616 0.166729 55.845 1.15215e-07 
365 1 0.0714681 0.178547 0.124747 55.845 5.39794e-08 
366 1 0.0714125 0.214291 0.166516 55.845 2.92321e-08 
367 1 0.107194 0.214279 0.124706 55.845 3.16469e-08 
368 1 0.107064 0.250013 0.166616 55.845 -1.80395e-09 
374 1 0.0714814 0.142756 0.16666 55.845 2.87563e-08 
375 1 0.107181 0.142875 0.124686 55.845 2.7476e-08 
376 1 0.10721 0.178615 0.166686 55.845 2.13851e-09 
459 1 0 0.178571 0.0416667 55.845 3.00451e-08 
460 1 0.000159688 0.214286 0.0835142 55.845 -2.36639e-07 
461 1 0.0357143 0.214286 0.0416667 55.845 -6.85413e-08 
462 1 0.0356707 0.249984 0.0835366 55.845 -1.84036e-07 
464 1 -2.23367e-05 0.142884 0.0836535 55.845 -2.93238e-07 
465 1 0.0357143 0.142857 0.0416667 55.845 -7.07122e-08 
466 1 0.0356859 0.178589 0.0836792 55.845 -2.07044e-07 
467 1 0.0714286 0.178571 0.0416667 55.845 -9.05076e-08 
468 1 0.0714739 0.214262 0.0834159 55.845 -2.19647e-07 
469 1 0.107143 0.214286 0.0416667 55.845 -1.29782e-07 
470 1 0.107215 0.250037 0.0834264 55.845 -1.30571e-07 
476 1 0.0714495 0.142863 0.0834967 55.845 -2.71863e-07 
477 1 0.107143 0.142857 0.0416667 55.845 -1.1915e-07 
478 1 0.107164 0.178585 0.0834241 55.845 -2.64491e-07 
561 1 0 0.214286 0 55.845 -6.19431e-08 
562 1 0.0357143 0.25 0 55.845 -1.22959e-08 
563 1 0 0.142857 0 55.845 -9.22511e-08 
564 1 0.0357143 0.178571 0 55.845 -7.96399e-08 
565 1 0.0714286 0.214286 0 55.845 -1.40104e-08 
566 1 0.107143 0.25 0 55.845 -4.53476e-08 
569 1 0.0714286 0.142857 0 55.845 -2.82801e-08 
570 1 0.107143 0.178571 0 55.845 -1.35681e-07 
275 1 0.142943 0.17852 0.20832 55.845 2.29233e-07 
277 1 0.178603 0.214371 0.208408 55.845 2.74003e-07 
287 1 0.178549 0.142888 0.208299 55.845 1.89628e-07 
289 1 0.214293 0.178503 0.208352 55.845 2.0903e-07 
291 1 0.250088 0.214175 0.208331 55.845 2.02041e-07 
301 1 0.250043 0.142847 0.208241 55.845 1.87601e-07 
377 1 0.142823 0.178511 0.124622 55.845 -1.75834e-08 
378 1 0.142854 0.214305 0.166612 55.845 -2.21954e-08 
379 1 0.17856 0.214339 0.124566 55.845 8.61078e-09 
388 1 0.142875 0.142768 0.16671 55.845 -2.82361e-09 
389 1 0.178491 0.142761 0.124747 55.845 3.21964e-08 
390 1 0.17859 0.178577 0.166476 55.845 4.29835e-08 
391 1 0.214295 0.178475 0.124475 55.845 7.5206e-08 
392 1 0.214374 0.214228 0.166585 55.845 -1.85599e-08 
393 1 0.250159 0.214188 0.124614 55.845 5.51594e-08 
402 1 0.214313 0.142774 0.166494 55.845 2.06138e-09 
403 1 0.250024 0.142834 0.12454 55.845 7.29087e-08 
404 1 0.250046 0.178508 0.166651 55.845 1.06198e-07 
479 1 0.142857 0.178571 0.0416667 55.845 -1.63487e-07 
480 1 0.142881 0.214239 0.083454 55.845 -2.51511e-07 
481 1 0.178571 0.214286 0.0416667 55.845 -1.788e-07 
490 1 0.142787 0.142837 0.0835979 55.845 -2.71327e-07 
491 1 0.178571 0.142857 0.0416667 55.845 -1.14837e-07 
492 1 0.178541 0.178509 0.083501 55.845 -1.80412e-07 
493 1 0.214286 0.178571 0.0416667 55.845 -1.16046e-07 
494 1 0.214303 0.214215 0.08358 55.845 -1.63814e-07 
495 1 0.25 0.214286 0.0416667 55.845 -9.34648e-08 
504 1 0.214202 0.142813 0.083497 55.845 -1.88247e-07 
505 1 0.25 0.142857 0.0416667 55.845 -2.42199e-08 
506 1 0.250078 0.178654 0.0835297 55.845 -1.39589e-07 
571 1 0.142857 0.214286 0 55.845 -5.2639e-08 
576 1 0.142857 0.142857 0 55.845 -3.96645e-08 
577 1 0.178571 0.178571 0 55.845 -4.77592e-08 
578 1 0.214286 0.214286 0 55.845 1.92143e-08 
583 1 0.214286 0.142857 0 55.845 3.00498e-08 
584 1 0.25 0.178571 0 55.845 -1.53095e-08 
303 1 0.285853 0.178556 0.208494 55.845 1.68085e-07 
305 1 0.321419 0.214282 0.208496 55.845 2.09229e-07 
315 1 0.321469 0.14283 0.20835 55.845 2.34166e-07 
317 1 0.357189 0.178493 0.208472 55.845 1.81393e-07 
405 1 0.285865 0.178502 0.124617 55.845 5.26179e-08 
406 1 0.285799 0.214193 0.166426 55.845 4.0471e-08 
407 1 0.32143 0.214244 0.124484 55.845 3.84042e-08 
416 1 0.285726 0.142788 0.166597 55.845 8.45276e-08 
417 1 0.321472 0.142957 0.12483 55.845 4.88109e-08 
418 1 0.321473 0.178655 0.166585 55.845 1.14572e-07 
419 1 0.35712 0.178504 0.1247 55.845 5.72135e-08 
420 1 0.357137 0.2142 0.166676 55.845 3.50038e-08 
432 1 0.35723 0.142847 0.16663 55.845 9.93888e-08 
507 1 0.285714 0.178571 0.0416667 55.845 -1.21041e-08 
508 1 0.285763 0.214214 0.0834215 55.845 -2.29379e-07 
509 1 0.321429 0.214286 0.0416667 55.845 -1.18963e-07 
518 1 0.285726 0.142809 0.0835103 55.845 -2.8831e-07 
519 1 0.321429 0.142857 0.0416667 55.845 -5.11006e-08 
520 1 0.321515 0.17856 0.083372 55.845 -2.8004e-07 
521 1 0.357143 0.178571 0.0416667 55.845 -1.0067e-07 
522 1 0.357157 0.214307 0.0834942 55.845 -1.93235e-07 
534 1 0.357082 0.142855 0.0834379 55.845 -3.29849e-07 
585 1 0.285714 0.214286 0 55.845 -5.24356e-08 
590 1 0.285714 0.142857 0 55.845 -1.22062e-07 
591 1 0.321429 0.178571 0 55.845 -1.15397e-07 
592 1 0.357143 0.214286 0 55.845 -5.12582e-08 
598 1 0.357143 0.142857 0 55.845 -1.39525e-07 
319 1 0.392873 0.21416 0.208451 55.845 2.6699e-07 
321 1 0.428492 0.250058 0.208363 55.845 2.66793e-07 
331 1 0.392932 0.142836 0.208402 55.845 2.46941e-07 
333 1 0.42852 0.178528 0.208283 55.845 2.62931e-07 
335 1 0.464271 0.214248 0.208475 55.845 3.06555e-07 
345 1 0.464214 0.142911 0.208092 55.845 2.47992e-07 
606 1 0.464286 0.178571 0 55.845 -8.6881e-08 
421 1 0.39278 0.214266 0.124709 55.845 4.52231e-08 
422 1 0.392821 0.24996 0.166832 55.845 7.06204e-08 
423 1 0.428493 0.250009 0.1247 55.845 4.63572e-08 
433 1 0.392845 0.142908 0.124501 55.845 8.61673e-08 
434 1 0.392832 0.178566 0.166637 55.845 1.11186e-07 
435 1 0.428509 0.178587 0.124553 55.845 -1.61529e-08 
436 1 0.428504 0.214281 0.166641 55.845 3.96948e-08 
437 1 0.464273 0.214391 0.124754 55.845 8.11056e-08 
605 1 0.428571 0.142857 0 55.845 -6.16292e-08 
446 1 0.428542 0.142826 0.166557 55.845 1.08372e-07 
447 1 0.464292 0.142929 0.124583 55.845 8.09553e-08 
448 1 0.464281 0.178655 0.16657 55.845 4.55829e-08 
523 1 0.392857 0.214286 0.0416667 55.845 -1.26081e-07 
524 1 0.392826 0.250078 0.083561 55.845 -2.94857e-08 
525 1 0.428571 0.25 0.0416667 55.845 -1.79847e-07 
535 1 0.392857 0.142857 0.0416667 55.845 -7.11856e-08 
536 1 0.392875 0.178615 0.0834994 55.845 -2.87754e-07 
537 1 0.428571 0.178571 0.0416667 55.845 -9.74956e-08 
538 1 0.428437 0.214394 0.0836347 55.845 -1.59755e-07 
539 1 0.464286 0.214286 0.0416667 55.845 -1.07567e-07 
548 1 0.428576 0.142862 0.083444 55.845 -2.31162e-07 
549 1 0.464286 0.142857 0.0416667 55.845 -1.18302e-08 
550 1 0.464313 0.178622 0.0835793 55.845 -2.12856e-07 
593 1 0.392857 0.25 0 55.845 3.64157e-08 
599 1 0.392857 0.178571 0 55.845 -1.16537e-07 
600 1 0.428571 0.214286 0 55.845 -3.13946e-08 
3 1 9.58529e-05 0.107207 0.457698 55.845 1.03624e-07 
7 1 7.5588e-05 0.0356994 0.457655 55.845 1.26611e-07 
8 1 0.0356852 0.0714266 0.457804 55.845 8.68776e-08 
9 1 0.0713805 0.107145 0.457794 55.845 7.9122e-08 
13 1 0.035771 2.96338e-05 0.457623 55.845 1.55146e-07 
14 1 0.071416 0.0356986 0.457761 55.845 8.62649e-08 
15 1 0.107142 0.0713873 0.457598 55.845 1.42719e-07 
20 1 0.107148 -2.05001e-05 0.457741 55.845 2.02358e-07 
55 1 5.33742e-05 0.107113 0.373589 55.845 1.13385e-07 
63 1 3.12686e-05 0.03579 0.373492 55.845 3.91013e-08 
64 1 7.71195e-05 0.0714391 0.415734 55.845 7.06169e-08 
65 1 0.0357526 0.0714469 0.373603 55.845 6.05521e-08 
66 1 0.0356588 0.107149 0.415908 55.845 -2.22991e-08 
67 1 0.0713975 0.107096 0.373653 55.845 7.4068e-08 
74 1 1.6786e-05 -1.09335e-05 0.415675 55.845 -4.96512e-09 
75 1 0.0357466 -4.55075e-05 0.373619 55.845 9.42324e-08 
76 1 0.0356768 0.0357362 0.415846 55.845 5.33977e-08 
77 1 0.0714186 0.0357979 0.373611 55.845 3.00525e-08 
78 1 0.071395 0.0714387 0.415842 55.845 9.45436e-08 
79 1 0.107122 0.0713903 0.373819 55.845 -3.98717e-08 
80 1 0.107069 0.107066 0.415873 55.845 9.41302e-09 
88 1 0.0714939 -6.4423e-06 0.415752 55.845 5.8894e-08 
89 1 0.107083 8.67444e-06 0.373708 55.845 6.90977e-08 
90 1 0.107188 0.0357138 0.415856 55.845 7.1825e-08 
157 1 5.72004e-05 0.107075 0.289922 55.845 -3.16204e-07 
165 1 3.82924e-05 0.035678 0.289918 55.845 -2.48486e-07 
166 1 2.9447e-05 0.0713835 0.331216 55.845 -6.77185e-08 
167 1 0.0357309 0.0714687 0.290009 55.845 -3.77506e-07 
168 1 0.0357525 0.107134 0.331329 55.845 -1.37618e-07 
169 1 0.0714054 0.107186 0.289944 55.845 -3.36804e-07 
176 1 -2.04502e-05 -6.49218e-05 0.331207 55.845 -1.60616e-07 
177 1 0.0356595 -3.43925e-05 0.289869 55.845 -3.7015e-07 
178 1 0.0357593 0.0356759 0.331263 55.845 -5.02108e-08 
179 1 0.071409 0.0356788 0.289971 55.845 -3.6609e-07 
180 1 0.0714685 0.0714394 0.331226 55.845 -8.71368e-08 
181 1 0.107137 0.0713822 0.289838 55.845 -3.95242e-07 
182 1 0.10707 0.1071 0.331312 55.845 -7.01803e-08 
190 1 0.0714744 -8.69487e-05 0.331301 55.845 -5.8688e-08 
191 1 0.107167 -7.11213e-05 0.289853 55.845 -3.12805e-07 
192 1 0.10718 0.0357104 0.331334 55.845 -1.02608e-07 
268 1 -4.18751e-05 0.0713509 0.249734 55.845 4.92136e-08 
270 1 0.0356348 0.10705 0.249597 55.845 3.20881e-08 
278 1 3.16407e-05 3.99429e-06 0.249614 55.845 -8.57107e-09 
280 1 0.0357856 0.0357186 0.24973 55.845 -1.21465e-08 
282 1 0.071432 0.0713375 0.249828 55.845 3.24252e-08 
284 1 0.107128 0.107102 0.249772 55.845 -8.72835e-08 
292 1 0.0714431 -2.81476e-05 0.249711 55.845 5.02767e-08 
294 1 0.107095 0.0356478 0.249795 55.845 -1.83275e-09 
16 1 0.142781 0.107127 0.457626 55.845 2.34329e-07 
21 1 0.142813 0.0356624 0.457983 55.845 1.51668e-07 
22 1 0.178554 0.0714591 0.457688 55.845 1.78744e-07 
23 1 0.214368 0.107171 0.457759 55.845 1.63336e-07 
27 1 0.178556 -4.52046e-05 0.457843 55.845 1.75327e-07 
28 1 0.214285 0.0357124 0.45782 55.845 1.6651e-07 
29 1 0.250014 0.0714846 0.457753 55.845 1.35534e-07 
81 1 0.142849 0.107207 0.373464 55.845 5.94286e-08 
91 1 0.142839 0.0356773 0.37346 55.845 2.92012e-08 
92 1 0.142811 0.0713341 0.415948 55.845 -6.44742e-09 
93 1 0.178517 0.0714006 0.373676 55.845 7.30143e-08 
94 1 0.178546 0.107149 0.415782 55.845 6.62621e-09 
95 1 0.214329 0.107205 0.373482 55.845 1.43519e-07 
102 1 0.142901 6.96995e-05 0.41588 55.845 8.36625e-08 
103 1 0.178537 -8.48491e-06 0.373675 55.845 2.33317e-08 
104 1 0.178554 0.0357213 0.41592 55.845 4.55275e-08 
105 1 0.214229 0.0356585 0.373711 55.845 8.83663e-08 
106 1 0.214267 0.0714315 0.415834 55.845 7.82668e-08 
107 1 0.250029 0.0713775 0.37376 55.845 1.75777e-07 
108 1 0.249993 0.107158 0.415762 55.845 4.02671e-08 
118 1 0.214216 -2.9813e-06 0.415853 55.845 1.20835e-07 
120 1 0.250019 0.035747 0.415784 55.845 3.45059e-08 
183 1 0.142727 0.107101 0.289864 55.845 -3.39136e-07 
193 1 0.14285 0.0356557 0.289836 55.845 -3.46617e-07 
194 1 0.14282 0.0714459 0.331173 55.845 -8.41096e-08 
195 1 0.178525 0.0714458 0.289868 55.845 -2.48144e-07 
196 1 0.178546 0.107097 0.331216 55.845 -1.05545e-07 
197 1 0.214255 0.107049 0.289747 55.845 -2.30329e-07 
204 1 0.142794 -2.55423e-05 0.331352 55.845 -3.96163e-08 
205 1 0.178529 -3.35039e-05 0.289896 55.845 -2.89079e-07 
206 1 0.178548 0.0357281 0.331078 55.845 -7.71357e-08 
207 1 0.214243 0.0356951 0.289887 55.845 -2.15505e-07 
208 1 0.214322 0.0714224 0.331216 55.845 -3.48971e-08 
209 1 0.250023 0.071446 0.289746 55.845 -1.93518e-07 
210 1 0.250071 0.107044 0.331214 55.845 -4.27397e-08 
220 1 0.214286 1.61462e-06 0.331228 55.845 -2.47437e-08 
222 1 0.249991 0.0356674 0.331248 55.845 3.8624e-08 
296 1 0.142839 0.0713475 0.249477 55.845 -9.21118e-08 
298 1 0.178556 0.107054 0.249648 55.845 -4.01948e-08 
306 1 0.142909 2.78191e-05 0.24963 55.845 -1.54944e-08 
308 1 0.178537 0.0356823 0.249685 55.845 -4.51546e-09 
310 1 0.214221 0.0713743 0.249513 55.845 -7.96361e-09 
312 1 0.250121 0.107058 0.24966 55.845 1.78351e-08 
322 1 0.214239 -5.13699e-05 0.249699 55.845 -6.18292e-08 
324 1 0.249993 0.0357981 0.249599 55.845 2.49178e-08 
30 1 0.285691 0.107065 0.457803 55.845 1.0291e-07 
35 1 0.250068 3.39449e-05 0.45766 55.845 1.68422e-07 
36 1 0.285746 0.0356953 0.45767 55.845 1.64436e-07 
37 1 0.321398 0.0713931 0.457609 55.845 1.66745e-07 
38 1 0.357122 0.107011 0.457616 55.845 3.54221e-08 
42 1 0.321395 -7.12832e-05 0.457829 55.845 1.44871e-07 
43 1 0.357067 0.0356736 0.457725 55.845 1.85633e-07 
109 1 0.28573 0.107104 0.373433 55.845 1.65316e-07 
119 1 0.249964 -8.54034e-05 0.373752 55.845 1.03006e-07 
121 1 0.285765 0.0357061 0.373466 55.845 1.75378e-07 
122 1 0.285717 0.0713447 0.415743 55.845 6.67723e-08 
123 1 0.321377 0.07148 0.373397 55.845 1.83852e-07 
124 1 0.32141 0.107124 0.415608 55.845 3.05187e-08 
125 1 0.357083 0.107068 0.373502 55.845 1.67818e-07 
133 1 0.321454 9.63926e-05 0.373625 55.845 1.10764e-07 
134 1 0.321439 0.0357361 0.415844 55.845 5.77487e-08 
135 1 0.357144 0.0356869 0.373643 55.845 1.32599e-07 
136 1 0.35713 0.0713667 0.415829 55.845 6.8119e-08 
211 1 0.285766 0.107054 0.289719 55.845 -2.49647e-07 
221 1 0.249997 -6.26605e-05 0.289838 55.845 -3.2812e-07 
223 1 0.28576 0.0356573 0.289823 55.845 -3.36612e-07 
224 1 0.285686 0.0713122 0.33104 55.845 -3.63017e-08 
225 1 0.32142 0.0713582 0.289675 55.845 -2.988e-07 
226 1 0.321448 0.10705 0.331099 55.845 -1.18454e-07 
227 1 0.357199 0.107101 0.289808 55.845 -2.7558e-07 
235 1 0.321488 1.46798e-05 0.289756 55.845 -3.09937e-07 
236 1 0.321444 0.0357664 0.331097 55.845 -6.49354e-08 
237 1 0.357121 0.035675 0.289869 55.845 -3.29331e-07 
238 1 0.357125 0.0714461 0.331119 55.845 -1.32265e-07 
326 1 0.285797 0.071358 0.249521 55.845 7.95869e-08 
328 1 0.321506 0.10715 0.249613 55.845 8.06115e-08 
338 1 0.321481 0.0356448 0.249548 55.845 7.0163e-08 
340 1 0.357109 0.0713943 0.249799 55.845 4.60755e-08 
44 1 0.392855 0.0714056 0.457787 55.845 1.3046e-07 
45 1 0.428517 0.107081 0.457706 55.845 1.30774e-07 
47 1 0.392821 -1.03963e-05 0.457792 55.845 2.14039e-07 
48 1 0.428529 0.035774 0.457841 55.845 2.19282e-07 
49 1 0.464241 0.0713478 0.457711 55.845 1.1986e-07 
50 1 0.464232 -1.77364e-05 0.457846 55.845 2.1956e-07 
137 1 0.392884 0.0713011 0.373596 55.845 9.98677e-08 
138 1 0.392928 0.107147 0.415692 55.845 1.08252e-07 
139 1 0.428605 0.107103 0.373476 55.845 1.46498e-07 
144 1 0.392805 -1.61261e-05 0.373663 55.845 1.14397e-07 
145 1 0.392891 0.0357519 0.41599 55.845 8.52501e-08 
146 1 0.428649 0.0357885 0.373727 55.845 9.74224e-08 
147 1 0.428626 0.0713475 0.415819 55.845 1.07013e-07 
148 1 0.464278 0.0713163 0.373667 55.845 1.18913e-07 
149 1 0.464357 0.107148 0.415658 55.845 1.6628e-07 
150 1 0.428576 6.19561e-05 0.415822 55.845 7.58206e-08 
151 1 0.464309 -7.39962e-06 0.373694 55.845 6.3799e-08 
152 1 0.464335 0.0355952 0.415961 55.845 1.79828e-07 
239 1 0.392857 0.0713767 0.289808 55.845 -3.63484e-07 
240 1 0.392775 0.107032 0.33129 55.845 -7.1497e-08 
241 1 0.428538 0.107104 0.289744 55.845 -2.7396e-07 
246 1 0.392879 -5.62316e-05 0.289931 55.845 -3.55322e-07 
247 1 0.392918 0.0356951 0.331229 55.845 1.28019e-08 
248 1 0.428592 0.0356811 0.28989 55.845 -3.25736e-07 
249 1 0.428663 0.071394 0.33132 55.845 1.06299e-08 
250 1 0.464224 0.0713961 0.289737 55.845 -3.08725e-07 
251 1 0.464277 0.107052 0.331046 55.845 1.34234e-08 
252 1 0.428506 6.42065e-06 0.33127 55.845 1.15867e-07 
253 1 0.464224 2.18634e-05 0.289936 55.845 -3.26947e-07 
254 1 0.464364 0.0357378 0.331347 55.845 6.95062e-08 
342 1 0.392877 0.107184 0.249438 55.845 1.34792e-07 
349 1 0.39285 0.0357605 0.249582 55.845 2.57198e-08 
351 1 0.428482 0.0713842 0.24958 55.845 7.02264e-08 
353 1 0.464308 0.107173 0.249496 55.845 6.65378e-08 
354 1 0.428562 -9.2654e-05 0.249649 55.845 1.19514e-07 
356 1 0.46438 0.0357597 0.249664 55.845 7.90621e-08 
1 1 9.07219e-05 0.178584 0.457857 55.845 1.02262e-07 
2 1 0.0357353 0.214288 0.457782 55.845 1.92257e-07 
4 1 0.0356444 0.142813 0.457847 55.845 9.83294e-08 
5 1 0.0713685 0.178604 0.457527 55.845 1.30515e-07 
6 1 0.107104 0.214296 0.457427 55.845 1.33686e-07 
10 1 0.107121 0.142768 0.457669 55.845 1.24581e-07 
51 1 -8.76625e-05 0.178551 0.373568 55.845 3.08958e-08 
52 1 4.02286e-05 0.214272 0.41581 55.845 3.62289e-08 
53 1 0.0356483 0.214264 0.373645 55.845 8.79975e-08 
54 1 0.0356458 0.250003 0.415715 55.845 7.19746e-08 
56 1 -5.23322e-05 0.142905 0.415975 55.845 2.02451e-08 
57 1 0.0355865 0.142925 0.373366 55.845 6.4823e-08 
58 1 0.0357122 0.178518 0.415717 55.845 1.25488e-08 
59 1 0.0714714 0.1786 0.373493 55.845 1.08036e-07 
60 1 0.0713789 0.21434 0.415647 55.845 -9.69205e-10 
61 1 0.107101 0.21432 0.373444 55.845 8.01049e-08 
62 1 0.107151 0.250029 0.415602 55.845 7.9749e-08 
68 1 0.0713702 0.142786 0.415746 55.845 5.59849e-08 
69 1 0.107117 0.142854 0.373449 55.845 3.95914e-08 
70 1 0.107059 0.178601 0.415713 55.845 6.51142e-08 
153 1 4.09211e-05 0.178581 0.289764 55.845 -3.84639e-07 
154 1 -7.58629e-05 0.214296 0.331193 55.845 -1.55871e-07 
155 1 0.0356322 0.214272 0.289948 55.845 -3.19704e-07 
156 1 0.0357076 0.250016 0.331223 55.845 -1.04898e-07 
158 1 -1.39836e-05 0.142862 0.33109 55.845 -1.19089e-07 
159 1 0.0357141 0.142797 0.289915 55.845 -3.46427e-07 
160 1 0.0356794 0.17858 0.331159 55.845 -1.95564e-07 
161 1 0.0714107 0.178558 0.289829 55.845 -2.92628e-07 
162 1 0.071418 0.214268 0.331182 55.845 -5.86725e-08 
163 1 0.107046 0.214351 0.28993 55.845 -2.98321e-07 
164 1 0.107187 0.249995 0.331077 55.845 -1.03426e-07 
170 1 0.0714062 0.142876 0.331191 55.845 -1.0193e-07 
171 1 0.107067 0.142884 0.289876 55.845 -3.06183e-07 
172 1 0.107114 0.178659 0.331165 55.845 4.32561e-10 
256 1 -3.6138e-05 0.214303 0.249686 55.845 -5.04117e-08 
258 1 0.0356852 0.250059 0.249672 55.845 -9.27795e-08 
260 1 2.48101e-05 0.142844 0.249642 55.845 -1.53328e-08 
262 1 0.0357163 0.178598 0.249789 55.845 6.04142e-09 
264 1 0.0713951 0.214308 0.249473 55.845 -5.6481e-08 
266 1 0.107133 0.25 0.249511 55.845 -8.28882e-08 
272 1 0.0714129 0.1428 0.249739 55.845 1.51649e-08 
274 1 0.107148 0.178595 0.249616 55.845 2.39311e-08 
11 1 0.14296 0.178575 0.457452 55.845 1.79163e-07 
12 1 0.178568 0.214307 0.457599 55.845 1.82847e-07 
17 1 0.178684 0.142875 0.457538 55.845 1.67079e-07 
18 1 0.214314 0.178626 0.457645 55.845 1.56517e-07 
19 1 0.249918 0.214299 0.457677 55.845 1.99679e-07 
24 1 0.250014 0.142892 0.457783 55.845 1.4113e-07 
71 1 0.142836 0.178534 0.373485 55.845 7.23644e-08 
72 1 0.14288 0.214276 0.415586 55.845 6.87186e-08 
73 1 0.178567 0.214252 0.373499 55.845 -3.86541e-08 
82 1 0.142935 0.142766 0.415659 55.845 1.01802e-07 
83 1 0.178594 0.142868 0.373497 55.845 9.59804e-08 
84 1 0.178601 0.17852 0.415755 55.845 9.56475e-08 
85 1 0.21438 0.178502 0.373605 55.845 1.11107e-07 
86 1 0.214219 0.214262 0.415691 55.845 1.1432e-07 
87 1 0.249943 0.214338 0.373582 55.845 7.73295e-08 
96 1 0.214302 0.142856 0.415667 55.845 1.1989e-07 
97 1 0.25009 0.142803 0.373549 55.845 1.08423e-07 
98 1 0.250085 0.178604 0.415754 55.845 1.43349e-08 
173 1 0.142884 0.178499 0.289839 55.845 -3.18887e-07 
174 1 0.142861 0.21427 0.331147 55.845 -5.37343e-09 
175 1 0.178547 0.214351 0.289967 55.845 -2.92258e-07 
184 1 0.142899 0.142871 0.331131 55.845 7.57885e-09 
185 1 0.178589 0.142781 0.289729 55.845 -2.98054e-07 
186 1 0.178587 0.178604 0.331109 55.845 -8.7139e-08 
187 1 0.214258 0.178531 0.289746 55.845 -3.97053e-07 
188 1 0.214256 0.214217 0.33114 55.845 -4.56223e-08 
189 1 0.249945 0.214233 0.289723 55.845 -3.4646e-07 
198 1 0.214314 0.142775 0.331185 55.845 -1.15143e-07 
199 1 0.250025 0.142742 0.28972 55.845 -3.24045e-07 
200 1 0.249964 0.178532 0.331237 55.845 -9.32692e-08 
276 1 0.1429 0.214222 0.249637 55.845 -4.33692e-08 
286 1 0.142877 0.142777 0.249602 55.845 -9.31938e-09 
288 1 0.178558 0.178617 0.24951 55.845 -1.22673e-08 
290 1 0.214349 0.214323 0.249541 55.845 -3.53466e-08 
300 1 0.214292 0.142822 0.249546 55.845 2.91248e-08 
302 1 0.249967 0.178511 0.249647 55.845 -1.08028e-08 
25 1 0.285734 0.178537 0.457603 55.845 1.98729e-07 
26 1 0.32148 0.21427 0.457563 55.845 1.60334e-07 
31 1 0.321477 0.142751 0.457752 55.845 1.58697e-07 
32 1 0.357139 0.178513 0.457529 55.845 9.39925e-08 
99 1 0.28588 0.178614 0.37346 55.845 1.34449e-07 
100 1 0.28561 0.214219 0.415708 55.845 8.30783e-08 
101 1 0.321438 0.214393 0.373664 55.845 1.41874e-07 
110 1 0.285772 0.142772 0.4158 55.845 4.42219e-08 
111 1 0.321557 0.142809 0.373671 55.845 1.68478e-07 
112 1 0.321444 0.178589 0.415691 55.845 4.46873e-08 
113 1 0.357159 0.178568 0.373629 55.845 1.02194e-07 
114 1 0.357145 0.214369 0.41588 55.845 1.64887e-07 
126 1 0.357241 0.142741 0.415832 55.845 1.19226e-07 
201 1 0.285724 0.178467 0.289784 55.845 -3.14224e-07 
202 1 0.285689 0.214272 0.331043 55.845 -2.60839e-08 
203 1 0.321367 0.214293 0.290042 55.845 -3.67726e-07 
212 1 0.285758 0.142796 0.331304 55.845 -8.63253e-08 
213 1 0.321387 0.142802 0.289908 55.845 -2.63378e-07 
214 1 0.321498 0.178531 0.331165 55.845 -7.53555e-08 
215 1 0.357146 0.178513 0.289991 55.845 -2.24833e-07 
216 1 0.357146 0.214342 0.331348 55.845 7.26524e-09 