ITEM: TIMESTEP
500000
ITEM: NUMBER OF ATOMS
3000
ITEM: BOX BOUNDS xy xz yz pp pp pp
-15.6325 30.185 -15.2725
-0.311774 26.141 0
-0.70957 59.4946 0
ITEM: ATOMS id type xs ys zs mass q 
616 2 0.011328 0.238338 0.247409 32.06 -0.271466 
166 2 0.408056 0.456763 0.0927676 32.06 -0.278993 
140 2 6.56457e-05 0.312169 0.0484716 32.06 -0.269749 
153 1 0.376671 0.320149 0.174595 55.845 0.275153 
121 1 0.0669086 0.173947 0.0232169 55.845 0.278877 
6 1 0.140237 0.039015 0.0786288 55.845 0.270381 
19 2 0.0911876 0.183482 0.0621637 32.06 -0.219732 
33 1 0.388958 0.134043 0.185527 55.845 0.281632 
263 2 0.0963429 0.37218 0.102863 32.06 -0.26438 
142 2 0.199603 0.372239 0.158293 32.06 -0.249314 
667 2 0.482755 0.328741 0.195339 32.06 -0.258798 
129 1 0.15686 0.302391 0.180775 55.845 0.262344 
267 1 0.407971 0.447975 0.0273564 55.845 0.25904 
27 1 0.412343 0.0483204 0.030817 55.845 0.259568 
122 1 0.210082 0.239856 0.019361 55.845 0.257129 
145 1 0.34072 0.111367 0.0375687 55.845 0.261973 
295 1 0.443566 0.452165 0.174849 55.845 0.280491 
1099 2 0.164993 0.0636495 0.209543 32.06 -0.267556 
17 2 0.173689 0.031271 0.156369 32.06 -0.265699 
741 2 0.184131 0.450251 0.211537 32.06 -0.256548 
157 2 0.19956 0.170318 0.000114303 32.06 -0.265233 
277 2 0.343993 0.36782 0.0432807 32.06 -0.274865 
8 1 0.072004 0.182799 0.180017 55.845 0.255219 
44 2 0.0667544 0.0544768 0.0553012 32.06 -0.261 
186 2 0.480043 0.456023 0.0484379 32.06 -0.27046 
38 2 0.320059 0.112818 0.163576 32.06 -0.265514 
807 2 0.486199 0.314419 0.150582 32.06 -0.257863 
746 1 0.449988 0.253571 0.177341 55.845 0.277161 
2753 2 0.0910973 0.433285 0.055228 32.06 -0.27468 
150 1 0.340101 0.250395 0.0736461 55.845 0.263197 
762 2 0.281538 0.315058 0.203585 32.06 -0.276141 
781 2 0.431254 0.202063 0.206293 32.06 -0.260476 
126 1 0.199665 0.383607 0.075037 55.845 0.260563 
184 2 0.382999 0.349901 0.112025 32.06 -0.276068 
127 1 0.141795 0.355622 0.127627 55.845 0.278311 
244 1 0.0788316 0.310272 0.0717178 55.845 0.254861 
60 1 0.49604 0.05768 0.128102 55.845 0.26727 
265 1 0.272274 0.313855 0.0664862 55.845 0.248912 
512 1 0.300287 0.0584454 0.234072 55.845 0.279825 
603 1 0.165048 0.195649 0.228309 55.845 0.280499 
281 2 0.142521 0.235692 0.202016 32.06 -0.264474 
723 1 0.106332 0.440339 0.225767 55.845 0.261122 
243 1 0.209422 0.445275 0.0263437 55.845 0.269927 
855 2 0.0831205 0.487746 0.203093 32.06 -0.247107 
148 1 0.271331 0.176901 0.0282693 55.845 0.25487 
442 1 0.49155 0.449204 0.122333 55.845 0.263122 
268 1 0.345275 0.314258 0.019094 55.845 0.278705 
285 2 0.193524 0.425415 0.103579 32.06 -0.274916 
108 1 0.00545177 0.103203 0.130493 55.845 0.278407 
118 2 0.00229996 0.170679 0.150855 32.06 -0.262978 
181 2 0.347567 0.0655054 0.0126251 32.06 -0.267362 
2529 1 0.145306 0.31423 0.0252918 55.845 0.264682 
249 1 0.0251285 0.446055 0.174664 55.845 0.266661 
221 1 0.0219077 0.192285 0.0726112 55.845 0.286202 
189 2 0.490287 0.25618 0.0506699 32.06 -0.248987 
22 2 0.266178 0.25305 0.0919582 32.06 -0.27661 
180 1 0.339842 0.172925 0.136268 55.845 0.258073 
176 1 0.421014 0.307521 0.12297 55.845 0.280218 
242 1 0.273562 0.374074 0.0237246 55.845 0.254361 
9 1 0.156673 0.122353 0.185047 55.845 0.276429 
130 1 0.0751807 0.224687 0.127679 55.845 0.261668 
132 1 0.222937 0.341388 0.125768 55.845 0.228169 
154 1 0.186152 0.248871 0.128254 55.845 0.232506 
158 2 0.288964 0.260994 0.0462067 32.06 -0.256464 
274 1 0.147315 0.437213 0.0775519 55.845 0.266129 
136 2 0.00875965 0.251332 0.0926098 32.06 -0.255571 
831 2 0.246182 0.315604 0.159251 32.06 -0.266541 
59 1 0.475741 0.119185 0.0804034 55.845 0.275977 
178 1 0.300743 0.184156 0.185493 55.845 0.264288 
182 2 0.33362 0.175384 0.0604092 32.06 -0.267633 
16 2 0.146797 0.101638 0.109437 32.06 -0.245258 
302 2 0.262803 0.38367 0.094532 32.06 -0.293402 
124 1 0.0717445 0.112594 0.081724 55.845 0.274984 
24 2 0.065567 0.0899244 0.149357 32.06 -0.24917 
891 1 0.345065 0.37067 0.220645 55.845 0.265688 
141 2 0.0767572 0.25108 0.0438578 32.06 -0.251339 
7 1 0.0163791 0.0482532 0.182761 55.845 0.282032 
867 1 0.292399 0.441775 0.223398 55.845 0.258159 
722 1 0.0314024 0.311226 0.226432 55.845 0.233595 
15 2 0.0663732 0.104327 0.00649753 32.06 -0.271945 
37 2 0.283 0.057769 0.0683808 32.06 -0.265171 
168 2 0.16239 0.182926 0.049936 32.06 -0.241705 
882 2 0.358459 0.470749 0.198633 32.06 -0.242887 
28 1 0.292678 0.051111 0.130376 55.845 0.245284 
55 1 0.436443 0.121498 0.231201 55.845 0.264402 
2537 2 0.147429 0.185635 0.168954 32.06 -0.240369 
175 1 0.301715 0.319173 0.125416 55.845 0.214088 
865 1 0.0841223 0.249736 0.228599 55.845 0.256396 
620 2 0.00288106 0.119321 0.192839 32.06 -0.252258 
137 2 0.105308 0.316135 0.204275 32.06 -0.280684 
602 1 0.233962 0.129194 0.232961 55.845 0.273864 
11 1 0.138411 0.153056 0.134454 55.845 0.278824 
135 2 0.215035 0.329429 0.0514061 32.06 -0.284917 
151 1 0.219796 0.317275 0.223771 55.845 0.234291 
144 2 0.0055333 0.159364 0.106487 32.06 -0.237915 
639 2 0.127713 0.192784 0.104628 32.06 -0.25657 
757 2 0.0790945 0.0802283 0.210427 32.06 -0.243006 
374 2 0.0033028 0.435829 0.0981567 32.06 -0.270871 
255 2 0.136847 0.373864 0.047101 32.06 -0.268618 
643 2 0.238106 0.198301 0.215129 32.06 -0.243033 
30 1 0.339166 0.0525654 0.0864964 55.845 0.258468 
698 1 0.0480317 0.126047 0.228291 55.845 0.286872 
912 2 0.220612 0.20336 0.148206 32.06 -0.237751 
156 1 0.374268 0.415762 0.124437 55.845 0.239394 
520 2 0.375766 0.0688061 0.164733 32.06 -0.254842 
36 1 0.29148 0.225996 0.12537 55.845 0.259764 
40 2 0.422564 0.138665 0.0587662 32.06 -0.257307 
247 1 0.101255 0.446181 0.127336 55.845 0.266214 
160 2 0.355595 0.371734 0.16102 32.06 -0.250591 
46 2 0.351799 0.0553092 0.206112 32.06 -0.254402 
601 1 0.0995474 0.0449904 0.236164 55.845 0.266951 
266 1 0.470988 0.385003 0.0245271 55.845 0.262664 
31 1 0.246369 0.0799904 0.18418 55.845 0.244679 
188 2 0.358837 0.121086 0.114439 32.06 -0.26991 
269 1 0.488201 0.328663 0.0727652 55.845 0.269035 
745 1 0.3067 0.27094 0.230634 55.845 0.26461 
35 1 0.274217 0.120123 0.0865281 55.845 0.272435 
155 1 0.337627 0.452966 0.0723864 55.845 0.254546 
65 2 0.34744 0.25068 0.153894 32.06 -0.264098 
271 1 0.229048 0.454823 0.180137 55.845 0.268156 
143 2 0.337382 0.454953 0.149648 32.06 -0.269506 
889 1 0.48283 0.422805 0.225862 55.845 0.279385 
32 1 0.243164 0.247433 0.178791 55.845 0.275476 
152 1 0.309124 0.394392 0.178775 55.845 0.267137 
56 1 0.437732 0.050248 0.183118 55.845 0.246941 
310 2 0.471565 0.275618 0.103096 32.06 -0.226111 
258 2 0.043587 0.372764 0.149778 32.06 -0.25471 
301 2 0.477146 0.120531 0.00487799 32.06 -0.252137 
305 2 0.418332 0.391691 0.201433 32.06 -0.253077 
147 1 0.411359 0.241383 0.0330722 55.845 0.263451 
284 2 0.272516 0.457569 0.052856 32.06 -0.266405 
408 2 0.105882 0.301243 0.155181 32.06 -0.253734 
262 2 0.150074 0.432424 0.157332 32.06 -0.242829 
2 1 0.209135 0.0429415 0.0258352 55.845 0.287596 
954 2 0.0268627 0.435737 0.247377 32.06 -0.251809 
637 2 0.304546 0.128643 0.215517 32.06 -0.25678 
128 1 0.0230324 0.310844 0.120479 55.845 0.268212 
270 1 0.399451 0.376675 0.0734422 55.845 0.245496 
131 1 0.281326 0.441389 0.123162 55.845 0.243273 
125 1 0.199097 0.171072 0.0789247 55.845 0.273555 
45 2 0.18486 0.0904614 0.0450647 32.06 -0.240694 
39 2 0.269312 0.110464 0.00404327 32.06 -0.270298 
149 1 0.410282 0.193097 0.0859245 55.845 0.279402 
67 2 0.481245 0.186572 0.104748 32.06 -0.24445 
219 1 0.0770143 0.377282 0.0230439 55.845 0.27605 
866 1 0.177715 0.374712 0.229055 55.845 0.241701 
627 1 0.371919 0.204392 0.231911 55.845 0.277706 
42 2 0.425039 0.0525863 0.10872 32.06 -0.268987 
162 2 0.365962 0.22518 0.106263 32.06 -0.259691 
282 2 0.142861 0.287873 0.112359 32.06 -0.27948 
164 2 0.353486 0.242268 0.00485462 32.06 -0.265756 
12 1 0.207182 0.0941158 0.132163 55.845 0.279355 
202 1 0.425821 0.122086 0.132483 55.845 0.273017 
43 2 0.474613 0.0467188 0.0520726 32.06 -0.267831 
774 1 0.433164 0.323169 0.22459 55.845 0.25342 
146 1 0.474037 0.184564 0.0305693 55.845 0.281777 
18 2 0.237589 0.151739 0.106666 32.06 -0.252178 
163 2 0.407381 0.313473 0.0509781 32.06 -0.266889 
161 2 0.37987 0.242677 0.19683 32.06 -0.244453 
167 2 0.225845 0.141507 0.164423 32.06 -0.244421 
250 1 0.0202174 0.384291 0.0724638 55.845 0.249004 
165 2 0.404306 0.181487 0.00770164 32.06 -0.268216 
3 1 0.130936 0.10896 0.0297423 55.845 0.285186 
278 2 0.452329 0.399551 0.15551 32.06 -0.242092 
123 1 0.161312 0.255512 0.072947 55.845 0.256577 
842 1 0.0898967 0.361865 0.176417 55.845 0.274801 
279 2 0.336301 0.437918 0.00139866 32.06 -0.264892 
735 2 0.0177144 0.36759 0.197048 32.06 -0.261284 
523 2 0.206184 0.0478573 0.0985737 32.06 -0.243628 
234 2 0.0149984 0.0405472 0.108977 32.06 -0.254035 
763 2 0.418467 0.435755 0.240563 32.06 -0.255137 
312 2 0.451477 0.184471 0.159211 32.06 -0.269647 
218 1 0.00324082 0.247629 0.0232029 55.845 0.265674 
10 1 0.0742377 0.0338567 0.129935 55.845 0.268716 
738 2 0.291943 0.376174 0.24311 32.06 -0.279215 
98 1 0.00217796 0.047734 0.0299297 55.845 0.262042 
339 1 0.0129262 0.448626 0.0282126 55.845 0.269765 
179 1 0.495073 0.251064 0.134902 55.845 0.282242 
252 1 0.21875 0.493193 0.12813 55.845 0.274177 
260 2 0.145002 0.451217 0.00479662 32.06 -0.259467 
759 2 0.149132 0.299493 0.248746 32.06 -0.28264 
2417 2 0.141526 0.0355855 0.00634304 32.06 -0.244415 
1029 2 0.360872 0.484565 0.248382 32.06 -0.254267 
615 2 0.09492 0.194115 0.249847 32.06 -0.262622 
2663 2 0.209299 0.37628 0.00149147 32.06 -0.266182 
231 2 0.0153594 0.366455 0.00142499 32.06 -0.260955 
638 2 0.237178 0.0443132 0.260213 32.06 -0.26713 
766 2 0.309037 0.396753 0.401021 32.06 -0.275265 
645 2 0.252562 0.138349 0.304296 32.06 -0.283945 
753 1 0.243815 0.329974 0.375202 55.845 0.254958 
607 1 0.0503349 0.110039 0.376779 55.845 0.264061 
646 2 0.308687 0.117838 0.361806 32.06 -0.26971 
926 2 0.446137 0.308973 0.297485 32.06 -0.270077 
1508 2 0.296557 0.490285 0.353096 32.06 -0.276546 
1345 1 0.177478 0.258436 0.423972 55.845 0.259557 
1357 2 0.113631 0.256995 0.448144 32.06 -0.265231 
618 2 0.178257 0.144706 0.255832 32.06 -0.244163 
628 1 0.255771 0.0545075 0.333871 55.845 0.258636 
1225 1 0.305697 0.102679 0.431759 55.845 0.267656 
1772 2 0.444492 0.0469604 0.400637 32.06 -0.267309 
1369 1 0.370606 0.17954 0.383457 55.845 0.267638 
1381 2 0.380633 0.253538 0.348301 32.06 -0.271516 
311 2 0.474656 0.375719 0.25809 32.06 -0.262065 
1501 2 0.194993 0.339643 0.406591 32.06 -0.28204 
614 2 0.043457 0.105623 0.302878 32.06 -0.274895 
887 2 0.175908 0.444434 0.350895 32.06 -0.26843 
656 1 0.447232 0.260228 0.328597 55.845 0.257364 
702 1 0.0402812 0.245462 0.32477 55.845 0.244179 
1479 2 0.182581 0.493401 0.400128 32.06 -0.270267 
608 1 0.0379687 0.314613 0.374059 55.845 0.247631 
1112 1 0.180293 0.0446253 0.43041 55.845 0.248474 
625 1 0.304665 0.118841 0.279904 55.845 0.248715 
1621 2 0.330912 0.443658 0.300175 32.06 -0.258828 
631 1 0.129975 0.0627568 0.381236 55.845 0.267401 
783 2 0.438283 0.237481 0.257167 32.06 -0.269276 
647 2 0.242676 0.0446949 0.410175 32.06 -0.272515 
911 2 0.45187 0.436898 0.401076 32.06 -0.267401 
750 1 0.175742 0.447474 0.278574 55.845 0.259624 
644 2 0.235063 0.242523 0.251556 32.06 -0.242046 
1245 2 0.244197 0.102106 0.457594 32.06 -0.27889 
1686 1 0.0682999 0.0532426 0.480735 55.845 0.268943 
1710 1 0.237763 0.0317568 0.482165 55.845 0.221154 
1348 1 0.188515 0.319036 0.472616 55.845 0.269121 
619 2 0.316484 0.31616 0.345242 32.06 -0.266528 
1254 1 0.441339 0.236526 0.476725 55.845 0.291618 
626 1 0.440491 0.185387 0.281305 55.845 0.277282 
630 1 0.19197 0.0704614 0.282367 55.845 0.255555 
749 1 0.368579 0.242537 0.275196 55.845 0.245075 
1102 2 0.189189 0.050014 0.359732 32.06 -0.256697 
779 1 0.24974 0.199629 0.280273 55.845 0.248262 
642 2 0.422069 0.110064 0.301682 32.06 -0.258144 
1269 2 0.367352 0.154003 0.456137 32.06 -0.257169 
782 2 0.369667 0.178997 0.304985 32.06 -0.273435 
788 2 0.170823 0.38209 0.303146 32.06 -0.260774 
1372 1 0.369799 0.305503 0.475787 55.845 0.267449 
1405 2 0.433435 0.374968 0.349161 32.06 -0.251632 
888 2 0.123761 0.397266 0.406636 32.06 -0.262782 
1347 1 0.251018 0.394394 0.429336 55.845 0.24213 
784 2 0.382472 0.398276 0.307822 32.06 -0.255656 
1205 1 0.117811 0.18231 0.477012 55.845 0.276119 
641 2 0.307452 0.1976 0.40379 32.06 -0.264818 
756 1 0.305832 0.374768 0.322208 55.845 0.267213 
1723 2 0.320266 0.0296459 0.455201 32.06 -0.258509 
767 2 0.257824 0.201045 0.344344 32.06 -0.275009 
1253 1 0.448022 0.164249 0.433374 55.845 0.25449 
633 1 0.244119 0.123579 0.380165 55.845 0.25649 
1489 1 0.312702 0.4552 0.377358 55.845 0.245533 
636 1 0.316688 0.191916 0.329648 55.845 0.254641 
754 1 0.178334 0.260913 0.273699 55.845 0.268778 
758 2 0.112956 0.26516 0.30327 32.06 -0.262804 
1389 2 0.439283 0.244726 0.3976 32.06 -0.267617 
669 2 0.305407 0.201283 0.250157 32.06 -0.264817 
658 1 0.37431 0.119035 0.329165 55.845 0.271585 
1364 2 0.131288 0.463133 0.448265 32.06 -0.260332 
778 1 0.374736 0.309296 0.321686 55.845 0.237683 
821 1 0.0510265 0.395366 0.274945 55.845 0.270097 
761 2 0.163033 0.245203 0.349751 32.06 -0.264363 
878 2 0.05384 0.334444 0.298912 32.06 -0.257323 
1326 1 0.116011 0.388699 0.471422 55.845 0.25835 
748 1 0.24592 0.258986 0.324943 55.845 0.256614 
701 1 0.0344076 0.186366 0.274641 55.845 0.257697 
777 1 0.377672 0.386318 0.372119 55.845 0.262644 
1227 1 0.243031 0.183578 0.42871 55.845 0.25893 
1228 1 0.178929 0.108684 0.478038 55.845 0.250306 
1527 2 0.38897 0.443783 0.34716 32.06 -0.245968 
1206 1 0.0572265 0.259061 0.47153 55.845 0.267345 
751 1 0.108948 0.254717 0.373907 55.845 0.252161 
768 2 0.0978922 0.3096 0.353282 32.06 -0.269438 
1734 1 0.444306 0.0233463 0.476986 55.845 0.265182 
1249 1 0.382909 0.0458538 0.429153 55.845 0.276538 
655 1 0.314167 0.0491479 0.383721 55.845 0.263733 
672 2 0.390694 0.0633809 0.355777 32.06 -0.264334 
775 1 0.310071 0.255841 0.374425 55.845 0.269953 
606 1 0.0956585 0.180628 0.325204 55.845 0.252843 
886 2 0.241481 0.389624 0.354345 32.06 -0.272934 
1374 1 0.432931 0.434518 0.474885 55.845 0.269695 
662 2 0.314038 0.0444499 0.313303 32.06 -0.265576 
1370 1 0.446368 0.372711 0.425022 55.845 0.267568 
1239 2 0.179779 0.134267 0.401152 32.06 -0.27517 
1359 2 0.204632 0.401554 0.457664 32.06 -0.2689 
1263 2 0.369563 0.104937 0.410507 32.06 -0.261191 
1383 2 0.246933 0.269216 0.398391 32.06 -0.255919 
791 2 0.434355 0.176061 0.36274 32.06 -0.253319 
764 2 0.235738 0.442723 0.252775 32.06 -0.273828 
1219 2 0.116039 0.194404 0.400275 32.06 -0.265385 
729 1 0.0533697 0.386738 0.428021 55.845 0.261029 
1724 2 0.119371 0.0365271 0.457712 32.06 -0.28293 
622 2 0.126772 0.125471 0.35402 32.06 -0.268365 
1363 2 0.317393 0.462437 0.453727 32.06 -0.262206 
871 1 0.113119 0.453228 0.380506 55.845 0.274334 
609 1 0.0424947 0.0453635 0.332927 55.845 0.256944 
737 2 0.0442406 0.304985 0.440548 32.06 -0.261307 
1323 1 0.0497932 0.45335 0.475146 55.845 0.276521 
1244 2 0.168554 0.164975 0.45459 32.06 -0.272049 
760 2 0.22812 0.30902 0.304636 32.06 -0.271311 
1350 1 0.253339 0.467101 0.47718 55.845 0.246763 
743 2 0.0278243 0.155609 0.353476 32.06 -0.263355 
629 1 0.357808 0.045967 0.282248 55.845 0.28153 
657 1 0.449629 0.113809 0.378241 55.845 0.266575 
1252 1 0.381475 0.0978202 0.479966 55.845 0.265135 
1243 2 0.307486 0.227854 0.451825 32.06 -0.265819 
1268 2 0.367406 0.307197 0.402188 32.06 -0.257783 
789 2 0.180374 0.205718 0.298507 32.06 -0.261207 
1230 1 0.247694 0.240457 0.475524 55.845 0.246498 
1384 2 0.247095 0.311909 0.45094 32.06 -0.271597 
1465 1 0.197888 0.448084 0.426932 55.845 0.246842 
1139 1 0.445823 0.0610385 0.327545 55.845 0.258838 
895 1 0.238372 0.437871 0.325558 55.845 0.265669 
635 1 0.170678 0.313719 0.327148 55.845 0.273905 
731 1 0.0209744 0.448424 0.323095 55.845 0.267476 
803 1 0.439855 0.311531 0.376217 55.845 0.257803 
724 1 0.108028 0.31843 0.27705 55.845 0.265586 
875 1 0.106502 0.395319 0.324997 55.845 0.276344 
617 2 0.0561312 0.0491745 0.40455 32.06 -0.268533 
632 1 0.176062 0.190762 0.374734 55.845 0.270845 
752 1 0.182025 0.395199 0.377602 55.845 0.240648 
1203 1 0.0488568 0.183315 0.423059 55.845 0.266452 
1747 2 0.455336 0.0957378 0.454421 32.06 -0.264099 
1202 1 0.117823 0.118651 0.426997 55.845 0.264012 
1322 1 0.117217 0.319908 0.42207 55.845 0.261948 
624 2 0.0488572 0.25394 0.403488 32.06 -0.259167 
1226 1 0.37514 0.238857 0.423978 55.845 0.263915 
1346 1 0.31246 0.31742 0.426175 55.845 0.260066 
1267 2 0.433574 0.296418 0.456687 32.06 -0.259356 
605 1 0.178534 0.127266 0.327121 55.845 0.259232 
726 1 0.24488 0.371315 0.276712 55.845 0.236007 
725 1 0.114351 0.130478 0.282341 55.845 0.270776 
1229 1 0.311408 0.167733 0.478451 55.845 0.259703 
1699 2 0.0625724 0.113736 0.456955 32.06 -0.254565 
621 2 0.115302 0.0572742 0.31429 32.06 -0.273434 
1477 2 0.0431052 0.45315 0.398014 32.06 -0.26032 
747 1 0.4099 0.373603 0.277679 55.845 0.244005 
1007 2 0.0858476 0.449406 0.30792 32.06 -0.253167 
1349 1 0.315872 0.387877 0.472604 55.845 0.25962 
1386 2 0.392865 0.377373 0.447995 32.06 -0.27379 
1371 1 0.383278 0.439972 0.426379 55.845 0.25267 
776 1 0.451354 0.447906 0.327894 55.845 0.29234 
892 1 0.37351 0.428784 0.272619 55.845 0.258573 
742 2 0.0378451 0.390013 0.348359 32.06 -0.252058 
668 2 0.366923 0.107794 0.256827 32.06 -0.247461 
1264 2 0.316561 0.323568 0.496579 32.06 -0.271024 
1696 2 0.0188814 0.0754655 0.499339 32.06 -0.25622 
1388 2 0.416541 0.488905 0.457412 32.06 -0.264648 
739 2 0.116051 0.389614 0.255297 32.06 -0.26987 
640 2 0.057772 0.0663356 0.262468 32.06 -0.256882 
185 2 0.42399 0.0581899 0.25327 32.06 -0.251589 
1338 2 0.0440123 0.377482 0.489465 32.06 -0.263916 
1382 2 0.446615 0.377486 0.494741 32.06 -0.26064 
604 1 0.0545186 0.00154302 0.287063 55.845 0.2538 
1387 2 0.377203 0.462187 0.499993 32.06 -0.270777 
192 2 0.379267 0.305314 0.253339 32.06 -0.273022 
1365 2 0.121286 0.326116 0.494324 32.06 -0.255906 
1726 2 0.455035 0.178961 0.492317 32.06 -0.245301 
1124 2 0.188693 0.00442475 0.306152 32.06 -0.268423 
1218 2 0.0606042 0.190932 0.499745 32.06 -0.247985 
1362 2 0.255901 0.396233 0.49525 32.06 -0.261141 
1094 2 0.124354 0.00186458 0.261817 32.06 -0.277772 
1739 1 0.451532 0.0988602 0.527977 55.845 0.261712 
1748 2 0.300861 0.162586 0.547853 32.06 -0.263345 
1921 1 0.051616 0.326354 0.623745 55.845 0.244053 
1353 1 0.397039 0.454606 0.574265 55.845 0.271593 
2307 1 0.331934 0.0491686 0.625711 55.845 0.271783 
2348 2 0.375294 0.0273791 0.660683 32.06 -0.274284 
1825 1 0.258455 0.110264 0.630078 55.845 0.290269 
1242 2 0.241483 0.162265 0.503837 32.06 -0.282124 
1945 1 0.256107 0.322775 0.628074 55.845 0.279625 
1957 2 0.18365 0.303852 0.607812 32.06 -0.249346 
1271 2 0.393128 0.126244 0.60426 32.06 -0.247932 
1793 2 0.0439492 0.048201 0.561651 32.06 -0.254579 
2104 2 0.444909 0.48947 0.704215 32.06 -0.266507 
1861 2 0.246378 0.0360475 0.612468 32.06 -0.233916 
1240 2 0.181984 0.248257 0.500257 32.06 -0.263217 
1366 2 0.434595 0.429604 0.548163 32.06 -0.274296 
1827 1 0.334316 0.258322 0.626759 55.845 0.265277 
1478 2 0.0533 0.439106 0.546612 32.06 -0.235901 
1358 2 0.195716 0.309474 0.550448 32.06 -0.240716 
1692 1 0.137574 0.0464744 0.5294 55.845 0.237783 
1924 1 0.0629692 0.251514 0.676528 55.845 0.245855 
1439 2 0.119833 0.388513 0.54147 32.06 -0.250302 
2044 1 0.0512258 0.438832 0.675737 55.845 0.274337 
1863 2 0.446637 0.250212 0.602826 32.06 -0.270296 
2324 2 0.184323 0.0486274 0.650965 32.06 -0.262873 
1845 2 0.272633 0.185785 0.652559 32.06 -0.258951 
1948 1 0.256787 0.237369 0.674862 55.845 0.26706 
1965 2 0.232577 0.374084 0.646694 32.06 -0.268893 
2068 1 0.258252 0.442506 0.675808 55.845 0.274131 
1375 1 0.457116 0.385116 0.572585 55.845 0.252119 
1933 2 0.119694 0.24909 0.570548 32.06 -0.233024 
1981 2 0.303987 0.15684 0.59646 32.06 -0.247983 
1343 2 0.255498 0.448421 0.597909 32.06 -0.264922 
1869 2 0.439195 0.159677 0.653809 32.06 -0.262825 
2092 1 0.450521 0.430637 0.680995 55.845 0.270252 
1406 2 0.483329 0.279769 0.50809 32.06 -0.234608 
1820 2 0.0490549 0.17989 0.655954 32.06 -0.274701 
1233 1 0.384245 0.233665 0.579172 55.845 0.265043 
1356 1 0.315321 0.457135 0.522348 55.845 0.234745 
1235 1 0.2498 0.305943 0.523915 55.845 0.275129 
1744 2 0.312801 0.0850004 0.505196 32.06 -0.274545 
1342 2 0.249445 0.445531 0.545865 32.06 -0.273388 
1367 2 0.448969 0.431056 0.602539 32.06 -0.261244 
1238 2 0.130832 0.110055 0.507918 32.06 -0.264349 
1849 1 0.459677 0.111223 0.626551 55.845 0.252768 
1819 2 0.102765 0.317498 0.646016 32.06 -0.279752 
1864 2 0.457933 0.109553 0.700012 32.06 -0.271115 
1222 2 0.365735 0.307073 0.550238 32.06 -0.251272 
1234 1 0.190873 0.181146 0.528117 55.845 0.263512 
2084 2 0.121585 0.45391 0.696873 32.06 -0.259243 
1834 1 0.181859 0.0336184 0.728139 55.845 0.280469 
1836 1 0.316194 0.108044 0.734803 55.845 0.263132 
1354 1 0.25548 0.382336 0.571654 55.845 0.256875 
1332 1 0.201552 0.455762 0.573125 55.845 0.273199 
1954 1 0.193905 0.245709 0.727821 55.845 0.252075 
1958 2 0.199489 0.188229 0.696238 32.06 -0.259742 
1926 1 0.12217 0.388619 0.673042 55.845 0.266233 
2323 2 0.327836 0.123304 0.653171 32.06 -0.252917 
1843 2 0.330612 0.333384 0.64984 32.06 -0.259985 
2078 2 0.194275 0.383848 0.703128 32.06 -0.26269 
1258 1 0.382407 0.173593 0.526342 55.845 0.263833 
1989 2 0.467601 0.374039 0.654099 32.06 -0.261983 
1858 1 0.380291 0.0376001 0.732301 55.845 0.250652 
1812 1 0.13213 0.11216 0.735823 55.845 0.261867 
1984 2 0.439679 0.296495 0.702743 32.06 -0.267766 
1212 1 0.123604 0.248076 0.52835 55.845 0.285412 
1978 1 0.387219 0.233273 0.731192 55.845 0.263093 
1982 2 0.388045 0.18485 0.702073 32.06 -0.267919 
1939 2 0.19317 0.452189 0.652504 32.06 -0.267669 
1830 1 0.317475 0.173589 0.682847 55.845 0.263017 
2098 1 0.382398 0.432973 0.727902 55.845 0.266863 
2102 2 0.366679 0.357996 0.704765 32.06 -0.252558 
1241 2 0.200732 0.120537 0.608241 32.06 -0.254836 
1224 2 0.128113 0.175289 0.550788 32.06 -0.245147 
1712 1 0.324456 0.112649 0.574412 55.845 0.286401 
1361 2 0.39062 0.302616 0.598433 32.06 -0.258958 
2074 1 0.188946 0.439425 0.72574 55.845 0.270754 
1247 2 0.404375 0.13629 0.550736 32.06 -0.258031 
1231 1 0.258176 0.184419 0.577604 55.845 0.271998 
1248 2 0.268592 0.256749 0.553411 32.06 -0.242849 
1351 1 0.179466 0.381007 0.626277 55.845 0.260612 
1368 2 0.303914 0.364146 0.547526 32.06 -0.248853 
1801 1 0.0676244 0.120792 0.630519 55.845 0.273214 
1716 1 0.318902 0.0374299 0.530913 55.845 0.262338 
1255 1 0.454986 0.159711 0.579569 55.845 0.275218 
1803 1 0.111451 0.253556 0.631092 55.845 0.25358 
1313 2 0.00333249 0.123248 0.608405 32.06 -0.28317 
1950 1 0.320571 0.373538 0.679262 55.845 0.282966 
1582 2 0.310391 0.0410413 0.585876 32.06 -0.228741 
2082 2 0.314586 0.438528 0.699872 32.06 -0.254686 
1815 2 0.133498 0.406215 0.599724 32.06 -0.282511 
1318 2 0.05987 0.25811 0.54525 32.06 -0.262656 
1839 2 0.279556 0.261035 0.60039 32.06 -0.250709 
1959 2 0.3206 0.366263 0.605363 32.06 -0.257124 
2299 2 0.128162 0.131674 0.658766 32.06 -0.253532 
1806 1 0.126424 0.191027 0.683451 55.845 0.262524 
1816 2 0.0732135 0.109944 0.71041 32.06 -0.26152 
1209 1 0.192948 0.259756 0.579706 55.845 0.285578 
1972 1 0.453889 0.244496 0.683424 55.845 0.264114 
1956 1 0.313939 0.301394 0.733287 55.845 0.262136 
1840 2 0.246318 0.0974859 0.710955 32.06 -0.264523 
1844 2 0.185021 0.258577 0.64573 32.06 -0.249916 
1960 2 0.250929 0.309169 0.69512 32.06 -0.260105 
1923 1 0.121744 0.46117 0.624152 55.845 0.242943 
1378 1 0.381486 0.37491 0.524802 55.845 0.260261 
1868 2 0.378798 0.240168 0.654172 32.06 -0.261237 
1947 1 0.317621 0.438631 0.627244 55.845 0.260011 
1988 2 0.38973 0.435874 0.662534 32.06 -0.255353 
1211 1 0.0520979 0.325334 0.523587 55.845 0.270175 
1745 2 0.443477 0.0418559 0.603573 32.06 -0.282239 
1331 1 0.128945 0.456349 0.523376 55.845 0.291024 
1236 1 0.311473 0.231745 0.526599 55.845 0.254994 
1691 1 0.0596564 0.113581 0.53029 55.845 0.277334 
1835 1 0.249779 0.169591 0.728413 55.845 0.269059 
1689 1 0.193694 0.0585807 0.582753 55.845 0.255208 
1955 1 0.246665 0.362426 0.722637 55.845 0.267331 
1259 1 0.43392 0.304779 0.527562 55.845 0.261713 
1715 1 0.241891 0.0964766 0.528318 55.845 0.235748 
1266 2 0.376196 0.235917 0.501104 32.06 -0.264271 
1702 2 0.2446 0.0375978 0.553807 32.06 -0.275074 
1208 1 0.117688 0.320213 0.577617 55.845 0.227972 
1804 1 0.0593836 0.0572939 0.681569 55.845 0.272109 
1232 1 0.322996 0.32161 0.576997 55.845 0.295858 
2058 2 0.0597258 0.316606 0.705151 32.06 -0.260207 
1828 1 0.264333 0.0514043 0.684039 55.845 0.254885 
1713 1 0.384177 0.0329283 0.577208 55.845 0.265852 
1802 1 0.199792 0.195424 0.62461 55.845 0.260987 
1859 1 0.445065 0.165002 0.726886 55.845 0.267098 
1932 1 0.123679 0.31414 0.72636 55.845 0.264871 
1826 1 0.395709 0.187679 0.629921 55.845 0.273381 
1946 1 0.392992 0.387078 0.629593 55.845 0.265082 
1811 1 0.0593845 0.171138 0.729498 55.845 0.245751 
1805 1 0.191609 0.12105 0.67656 55.845 0.269811 
1925 1 0.18916 0.314125 0.673649 55.845 0.263182 
1931 1 0.0508797 0.376455 0.725577 55.845 0.273999 
1829 1 0.3817 0.103262 0.676457 55.845 0.258107 
1949 1 0.381495 0.297242 0.680166 55.845 0.266449 
1223 2 0.187546 0.105129 0.552391 32.06 -0.277543 
1207 1 0.0449987 0.184515 0.580332 55.845 0.231117 
1818 2 0.14371 0.0741815 0.70495 32.06 -0.252617 
1852 1 0.447697 0.0394342 0.677905 55.845 0.257006 
1938 2 0.133237 0.256543 0.702545 32.06 -0.281632 
1979 1 0.4537 0.365349 0.727866 55.845 0.256766 
2283 1 0.119311 0.0479411 0.627414 55.845 0.259569 
1688 1 0.117013 0.109846 0.57821 55.845 0.256991 
1842 2 0.316344 0.0431702 0.713537 32.06 -0.271291 
1325 1 0.186631 0.381025 0.519481 55.845 0.268307 
1962 2 0.311272 0.244444 0.704111 32.06 -0.255043 
1969 1 0.452902 0.315479 0.625829 55.845 0.253186 
1327 1 0.0729928 0.407428 0.574496 55.845 0.269665 
1217 2 0.125132 0.195218 0.609042 32.06 -0.241924 
1935 2 0.0438632 0.442334 0.604556 32.06 -0.276526 
1337 2 0.0487517 0.375335 0.6547 32.06 -0.259857 
1837 2 0.0678486 0.0643135 0.60814 32.06 -0.268659 
1728 2 0.462062 0.0570106 0.55815 32.06 -0.273045 
2005 2 0.451052 0.235027 0.554553 32.06 -0.24598 
1305 1 0.0142153 0.266821 0.578149 55.845 0.218947 
2101 2 0.38522 0.495911 0.606282 32.06 -0.259157 
1722 2 0.378481 0.023015 0.50959 32.06 -0.256446 
2064 2 0.0472855 0.43655 0.74794 32.06 -0.274521 
2088 2 0.252606 0.440938 0.74828 32.06 -0.26061 
1319 2 0.0179302 0.339194 0.554603 32.06 -0.267351 
2063 2 0.116382 0.374953 0.746959 32.06 -0.261222 
1824 2 0.0371169 0.0397627 0.747557 32.06 -0.248546 
2087 2 0.313497 0.377754 0.748516 32.06 -0.268918 
1360 2 0.192113 0.4624 0.501655 32.06 -0.258772 
2646 1 0.189132 0.428676 0.878601 55.845 0.248237 
2455 1 0.464686 0.0406133 0.978821 55.845 0.260525 
2530 1 0.129892 0.232164 0.92586 55.845 0.261118 
2809 1 0.462982 0.440502 0.825348 55.845 0.269869 
2641 1 0.0641352 0.239375 0.827397 55.845 0.25866 
2553 1 0.405724 0.305184 0.977467 55.845 0.270757 
2547 1 0.326731 0.172612 0.831019 55.845 0.261188 
2505 1 0.00898953 0.101375 0.976005 55.845 0.260498 
2545 1 0.255398 0.0365499 0.839085 55.845 0.273633 
2436 1 0.460104 0.117764 0.933817 55.845 0.248592 
2665 1 0.261188 0.238275 0.831727 55.845 0.263486 
2677 2 0.195238 0.237453 0.805499 32.06 -0.254332 
1966 2 0.397281 0.30809 0.759222 32.06 -0.262559 
2643 1 0.125745 0.376202 0.827734 55.845 0.27943 
1968 2 0.250584 0.232934 0.751097 32.06 -0.271536 
2581 2 0.381499 0.0316951 0.808749 32.06 -0.265247 
2689 1 0.457567 0.235509 0.823633 55.845 0.248898 
2701 2 0.395185 0.245915 0.797659 32.06 -0.269214 
2410 1 0.131175 0.0376443 0.929836 55.845 0.258434 
1975 1 0.387921 0.172696 0.781329 55.845 0.273097 
2524 1 0.129073 0.103606 0.876818 55.845 0.25894 
2541 2 0.0452764 0.107911 0.847543 32.06 -0.266848 
2644 1 0.127788 0.302791 0.875092 55.845 0.26286 
2661 2 0.0700069 0.319811 0.856083 32.06 -0.267083 
2434 1 0.338049 0.035347 0.930931 55.845 0.273407 
2761 1 0.0573455 0.438548 0.822701 55.845 0.269193 
2548 1 0.339312 0.107103 0.882021 55.845 0.271403 
2565 2 0.257311 0.108543 0.854472 32.06 -0.258763 
2668 1 0.327454 0.299991 0.878772 55.845 0.243409 
2685 2 0.262312 0.303377 0.848549 32.06 -0.269243 
2621 1 0.0573527 0.169414 0.877727 55.845 0.274507 
1833 1 0.322604 0.0463546 0.782812 55.845 0.263548 
1872 2 0.443119 0.0229658 0.75302 32.06 -0.274406 
2557 2 0.194555 0.0352796 0.814817 32.06 -0.25191 
1832 1 0.255163 0.10721 0.782348 55.845 0.271904 
2409 1 0.218445 0.118406 0.978489 55.845 0.267541 
2518 2 0.194863 0.0952096 0.913457 32.06 -0.26977 
2680 2 0.266566 0.376292 0.958267 32.06 -0.261974 
2686 2 0.40444 0.446518 0.949126 32.06 -0.264045 
2741 1 0.0679726 0.380899 0.874258 55.845 0.273416 
2463 2 0.452448 0.00129401 0.805872 32.06 -0.247374 
1992 2 0.446464 0.159122 0.802162 32.06 -0.270382 
2754 2 0.0050287 0.450282 0.950889 32.06 -0.254782 
2534 2 0.123165 0.162186 0.898963 32.06 -0.270392 
2554 1 0.347626 0.239543 0.933558 55.845 0.26621 
2558 2 0.400241 0.093641 0.90334 32.06 -0.267473 
2431 1 0.281366 0.0485207 0.98362 55.845 0.267941 
2443 2 0.321528 0.035895 0.861242 32.06 -0.266203 
1846 2 0.382642 0.114017 0.756121 32.06 -0.269419 
2527 1 0.0650839 0.2411 0.976444 55.845 0.266819 
1848 2 0.25662 0.0454149 0.761563 32.06 -0.252191 
2703 2 0.464721 0.3829 0.798064 32.06 -0.26904 
2073 1 0.328711 0.439788 0.777219 55.845 0.257188 
1822 2 0.185044 0.083445 0.757237 32.06 -0.243885 
2539 2 0.132551 0.236399 0.849885 32.06 -0.256578 
2550 1 0.399256 0.246488 0.876636 55.845 0.25309 
2526 1 0.193532 0.227865 0.879504 55.845 0.264907 
2654 2 0.332673 0.367765 0.905647 32.06 -0.266005 
2424 2 0.214587 0.0369037 0.957439 32.06 -0.257368 
2671 1 0.270565 0.444295 0.976131 55.845 0.271948 
2760 2 0.0757716 0.366931 0.950898 32.06 -0.272254 
2798 2 0.261295 0.434317 0.900382 32.06 -0.274746 
2406 1 0.197622 0.0444467 0.884417 55.845 0.264311 
2422 2 0.347083 0.103169 0.955475 32.06 -0.256247 
2695 1 0.478626 0.444813 0.970612 55.845 0.249226 
2664 2 0.127202 0.359411 0.901982 32.06 -0.268337 
2678 2 0.374216 0.485555 0.896968 32.06 -0.275445 