ITEM: TIMESTEP
990000
ITEM: NUMBER OF ATOMS
3000
ITEM: BOX BOUNDS xy xz yz pp pp pp
-15.5568 30.1472 -15.2347
-0.279002 26.1082 0
-0.634984 59.42 0
ITEM: ATOMS id type xs ys zs mass q 
48 2 0.331737 0.0791732 0.141885 32.06 -0.252853 
166 2 0.349367 0.295781 0.101829 32.06 -0.288242 
2417 2 0.158526 0.0316361 0.00678459 32.06 -0.257588 
153 1 0.30287 0.300405 0.187546 55.845 0.281994 
121 1 0.0900024 0.168094 0.0329264 55.845 0.266964 
46 2 0.255773 0.0329316 0.174724 32.06 -0.248194 
19 2 0.110921 0.124994 0.0524977 32.06 -0.252144 
33 1 0.325715 0.103573 0.178185 55.845 0.265477 
263 2 0.0846571 0.349747 0.16841 32.06 -0.28107 
142 2 0.142996 0.279398 0.194434 32.06 -0.27853 
11 1 0.0671572 0.128118 0.129288 55.845 0.248646 
129 1 0.101279 0.321944 0.204107 55.845 0.226859 
267 1 0.348226 0.459256 0.0257542 55.845 0.266515 
891 1 0.455242 0.491275 0.214071 55.845 0.252274 
122 1 0.217305 0.217102 0.0314032 55.845 0.279912 
145 1 0.348005 0.0887753 0.0140557 55.845 0.228382 
192 2 0.458694 0.265446 0.204741 32.06 -0.24731 
133 2 0.0486207 0.184959 0.00699306 32.06 -0.254858 
745 1 0.243926 0.220224 0.241633 55.845 0.266126 
757 2 0.103773 0.162029 0.209015 32.06 -0.262845 
28 1 0.288671 0.0285556 0.106962 55.845 0.257204 
277 2 0.268203 0.364978 0.0563829 32.06 -0.259207 
865 1 0.199583 0.316363 0.232215 55.845 0.254675 
877 2 0.156249 0.34421 0.150151 32.06 -0.255453 
526 2 0.448502 0.0498532 0.142397 32.06 -0.254085 
241 1 0.0867867 0.352303 0.0145716 55.845 0.257745 
661 2 0.38935 0.00606501 0.205371 32.06 -0.274733 
746 1 0.381162 0.229257 0.185336 55.845 0.257669 
98 1 0.0140992 0.0398961 0.0318922 55.845 0.251094 
150 1 0.297511 0.224099 0.0797132 55.845 0.266608 
762 2 0.311868 0.30082 0.224541 32.06 -0.222987 
781 2 0.318965 0.181794 0.160983 32.06 -0.264527 
126 1 0.174913 0.362177 0.109081 55.845 0.263218 
184 2 0.461392 0.265286 0.109355 32.06 -0.271489 
889 1 0.42523 0.367183 0.219706 55.845 0.27326 
901 2 0.418615 0.443043 0.147078 32.06 -0.257452 
276 1 0.273522 0.460753 0.138496 55.845 0.252215 
265 1 0.226876 0.288846 0.0806958 55.845 0.266506 
8 1 0.0372565 0.167416 0.183436 55.845 0.238612 
264 2 0.00852049 0.367477 0.140719 32.06 -0.267776 
244 1 0.0709966 0.331067 0.0776488 55.845 0.252343 
261 2 0.0864424 0.408423 0.0983434 32.06 -0.277343 
243 1 0.182688 0.459317 0.0387083 55.845 0.243169 
17 2 0.111914 0.0167695 0.190203 32.06 -0.264868 
148 1 0.286361 0.150536 0.0309755 55.845 0.275756 
771 1 0.481776 0.204018 0.18887 55.845 0.285481 
268 1 0.285215 0.320765 0.0305467 55.845 0.268866 
285 2 0.248045 0.353611 0.108385 32.06 -0.247709 
27 1 0.472836 0.131729 0.0432498 55.845 0.249484 
669 2 0.35143 0.0912636 0.249406 32.06 -0.270746 
63 2 0.496322 0.0627965 0.0297167 32.06 -0.270482 
2529 1 0.157663 0.29053 0.0242657 55.845 0.269086 
38 2 0.231119 0.0132539 0.132721 32.06 -0.256751 
906 2 0.472924 0.44301 0.238816 32.06 -0.253564 
191 2 0.474168 0.147867 0.158989 32.06 -0.24528 
22 2 0.14534 0.0186677 0.0961458 32.06 -0.24272 
180 1 0.399222 0.217882 0.136463 55.845 0.244114 
284 2 0.26736 0.466125 0.0363575 32.06 -0.264181 
242 1 0.198542 0.375498 0.0500286 55.845 0.258988 
9 1 0.102257 0.0919494 0.177596 55.845 0.263318 
747 1 0.370794 0.273331 0.231307 55.845 0.269387 
132 1 0.0829972 0.270223 0.163535 55.845 0.227138 
154 1 0.154401 0.251175 0.129304 55.845 0.255787 
158 2 0.229307 0.16799 0.055088 32.06 -0.254175 
274 1 0.173969 0.44826 0.0982855 55.845 0.239616 
278 2 0.336143 0.303082 0.154483 32.06 -0.27482 
58 1 0.428245 0.0685683 0.177638 55.845 0.255669 
165 2 0.438257 0.14294 0.00800797 32.06 -0.265722 
178 1 0.246165 0.160164 0.184043 55.845 0.265685 
182 2 0.275535 0.0777476 0.040868 32.06 -0.249572 
298 1 0.369809 0.365385 0.125408 55.845 0.217793 
302 2 0.328925 0.179327 0.108393 32.06 -0.254463 
26 1 0.403672 0.0123302 0.0618991 55.845 0.242457 
24 2 0.0713669 0.0297669 0.151864 32.06 -0.241444 
286 2 0.351881 0.487989 0.161032 32.06 -0.240447 
304 2 0.421721 0.444723 0.102309 32.06 -0.269613 
65 2 0.446186 0.0951418 0.214945 32.06 -0.2643 
249 1 0.00568284 0.467636 0.200205 55.845 0.276769 
644 2 0.219184 0.13169 0.245072 32.06 -0.258907 
252 1 0.0758018 0.449901 0.151693 55.845 0.262727 
151 1 0.17021 0.218006 0.18664 55.845 0.255289 
168 2 0.225268 0.252817 0.116647 32.06 -0.249246 
2441 2 0.392643 0.05476 0.0316112 32.06 -0.279451 
130 1 0.0149004 0.206331 0.119893 55.845 0.223551 
55 1 0.352506 0.057811 0.211171 55.845 0.232454 
2537 2 0.171414 0.249864 0.0521409 32.06 -0.264909 
175 1 0.326309 0.238435 0.132906 55.845 0.253392 
2753 2 0.0434262 0.48732 0.00795527 32.06 -0.267533 
295 1 0.350538 0.41167 0.176943 55.845 0.256091 
136 2 -0.00435252 0.324146 0.0956501 32.06 -0.262018 
602 1 0.179396 0.0724167 0.214788 55.845 0.270425 
68 2 0.457793 0.0171051 0.105865 32.06 -0.243805 
135 2 0.143853 0.313757 0.0781996 32.06 -0.229761 
735 2 0.0601045 0.358622 0.230638 32.06 -0.269777 
144 2 0.0967465 0.277782 0.119917 32.06 -0.262463 
639 2 0.144116 0.133901 0.1178 32.06 -0.24067 
741 2 0.125007 0.308962 0.238731 32.06 -0.27616 
759 2 0.230015 0.292568 0.203021 32.06 -0.249944 
255 2 0.124816 0.369131 0.0461801 32.06 -0.26005 
643 2 0.172625 0.137766 0.202389 32.06 -0.25565 
30 1 0.318848 0.0533306 0.0646808 55.845 0.249003 
177 1 0.49743 0.328801 0.179889 55.845 0.263908 
260 2 0.100041 0.438824 0.0253359 32.06 -0.266185 
156 1 0.275787 0.3244 0.139022 55.845 0.26166 
262 2 0.0142716 0.411625 0.179564 32.06 -0.272137 
36 1 0.273064 0.100433 0.127072 55.845 0.267893 
40 2 0.46645 0.187461 0.0675663 32.06 -0.267043 
45 2 0.171454 0.011804 0.0602452 32.06 -0.229513 
160 2 0.239518 0.253979 0.160666 32.06 -0.253804 
164 2 0.301627 0.23718 0.018712 32.06 -0.237971 
698 1 0.0102837 0.0836139 0.23115 55.845 0.277942 
2681 2 0.235914 0.345611 0.00585185 32.06 -0.258476 
31 1 0.179331 0.0209572 0.167715 55.845 0.273833 
188 2 0.296871 0.142975 0.0693199 32.06 -0.243649 
311 2 0.379563 0.306339 0.195553 32.06 -0.259972 
140 2 0.0826283 0.272295 0.0502022 32.06 -0.257468 
35 1 0.226393 0.080729 0.083625 55.845 0.267991 
155 1 0.313141 0.419483 0.0840156 55.845 0.255083 
59 1 0.458075 0.120896 0.090318 55.845 0.251652 
271 1 0.165968 0.42044 0.171043 55.845 0.236126 
769 1 0.461376 0.144659 0.244571 55.845 0.254988 
259 2 0.101046 0.486443 0.0633718 32.06 -0.254445 
32 1 0.209461 0.1809 0.137672 55.845 0.28536 
152 1 0.214305 0.347706 0.178954 55.845 0.258585 
56 1 0.408959 0.134164 0.133412 55.845 0.260708 
176 1 0.431795 0.356816 0.166345 55.845 0.23533 
305 2 0.431599 0.420979 0.188891 32.06 -0.266001 
189 2 0.438249 0.254112 0.0557894 32.06 -0.253702 
668 2 0.399577 0.166873 0.167561 32.06 -0.25911 
722 1 0.0998426 0.221074 0.235854 55.845 0.247396 
124 1 0.0339258 0.0866202 0.0859518 55.845 0.260038 
308 2 0.370583 0.42168 0.0508547 32.06 -0.260052 
273 1 0.289311 0.493322 0.180388 55.845 0.254205 
341 1 0.0310792 0.41004 0.0510633 55.845 0.26824 
146 1 0.453909 0.206491 0.0296353 55.845 0.264193 
637 2 0.195215 0.0293872 0.241655 32.06 -0.24616 
266 1 0.418872 0.390899 0.0268297 55.845 0.266213 
270 1 0.36406 0.370402 0.0818985 55.845 0.245259 
131 1 0.0655278 0.3425 0.12814 55.845 0.243032 
125 1 0.169488 0.156308 0.0794283 55.845 0.276178 
257 2 0.0688855 0.486985 0.225845 32.06 -0.228265 
281 2 0.282313 0.418661 0.200885 32.06 -0.273794 
149 1 0.378861 0.16769 0.0776418 55.845 0.256937 
269 1 0.417479 0.294693 0.0866508 55.845 0.258977 
2688 2 0.397343 0.436303 0.00263372 32.06 -0.267808 
138 2 0.100039 0.162127 0.0957223 32.06 -0.251579 
772 1 0.482392 0.263739 0.243964 55.845 0.264261 
42 2 0.37543 0.0998454 0.0963353 32.06 -0.271354 
162 2 0.230221 0.140863 0.115836 32.06 -0.239786 
282 2 0.244904 0.439524 0.105392 32.06 -0.258396 
186 2 0.478199 0.274276 0.151257 32.06 -0.267078 
12 1 0.136623 0.0591454 0.128033 55.845 0.280503 
44 2 0.0709779 0.0224407 0.0215808 32.06 -0.245651 
143 2 0.0585953 0.196201 0.147468 32.06 -0.2956 
245 1 0.300284 0.490879 0.0746022 55.845 0.259155 
118 2 0.0306898 0.072378 0.157498 32.06 -0.267 
41 2 0.288016 0.0757099 0.212862 32.06 -0.269887 
163 2 0.326153 0.301126 0.0595969 32.06 -0.256257 
161 2 0.300855 0.207294 0.212274 32.06 -0.251787 
167 2 0.185493 0.106286 0.159352 32.06 -0.254461 
866 1 0.312415 0.379617 0.230826 55.845 0.257766 
287 2 0.283969 0.397638 0.155724 32.06 -0.255972 
3 1 0.146931 0.0855683 0.0298354 55.845 0.274996 
603 1 0.154886 0.157713 0.241879 55.845 0.256584 
123 1 0.0895371 0.216513 0.0714501 55.845 0.256785 
842 1 0.0847968 0.42309 0.205147 55.845 0.26916 
879 2 0.151255 0.437564 0.224909 32.06 -0.237544 
627 1 0.29946 0.142435 0.233517 55.845 0.265523 
147 1 0.38415 0.280737 0.0345861 55.845 0.264702 
309 2 0.452419 0.350832 0.0526514 32.06 -0.255788 
2912 1 0.423004 0.011937 0.00514325 55.845 0.250289 
294 1 0.498695 0.425017 0.0718396 55.845 0.260276 
867 1 0.233202 0.450684 0.224555 55.845 0.246599 
2712 2 0.485851 0.392822 0.00864079 32.06 -0.274425 
299 1 0.399322 0.495835 0.12587 55.845 0.283694 
301 2 0.432779 0.25895 0.00710985 32.06 -0.269667 
2 1 0.214047 0.0133725 0.0240273 55.845 0.288507 
218 1 0.0131027 0.225381 0.0302846 55.845 0.247898 
300 1 0.486903 0.443969 0.123236 55.845 0.250352 
141 2 0.0221579 0.132931 0.061697 32.06 -0.277846 
57 1 0.49418 0.0120404 0.13915 55.845 0.278508 
69 2 0.47799 0.0093209 0.0631156 32.06 -0.258685 
649 1 0.443969 0.0123995 0.232918 55.845 0.258607 
16 2 0.0124286 -0.000965804 0.0944836 32.06 -0.256401 
297 1 0.492394 0.503199 0.17165 55.845 0.262009 
1021 2 0.223631 0.496538 0.194555 32.06 -0.239127 
615 2 0.00643741 0.0182893 0.242988 32.06 -0.259834 
408 2 0.159931 0.493667 0.172838 32.06 -0.23539 
15 2 0.0982442 0.113153 0.00605988 32.06 -0.240011 
246 1 0.128643 0.500971 0.099049 55.845 0.241215 
523 2 0.342428 0.00410135 0.0886628 32.06 -0.262351 
412 1 0.441326 0.49648 0.0708372 55.845 0.288832 
1099 2 0.0851889 -0.00102052 0.247598 32.06 -0.24845 
2544 2 0.191681 0.248741 0.00138578 32.06 -0.251428 
159 2 0.342998 0.331198 -0.000740633 32.06 -0.264821 
765 2 0.416877 0.482296 0.296046 32.06 -0.245214 
766 2 0.325573 0.336899 0.349411 32.06 -0.263567 
645 2 0.286201 0.134003 0.286428 32.06 -0.245299 
753 1 0.278297 0.365111 0.383072 55.845 0.249537 
607 1 0.0434042 0.152814 0.38612 55.845 0.265635 
646 2 0.352873 0.12994 0.343186 32.06 -0.247104 
659 1 0.478375 0.219286 0.297743 55.845 0.238941 
885 2 0.1122 0.450676 0.266392 32.06 -0.246305 
1345 1 0.195892 0.238445 0.420546 55.845 0.264024 
1357 2 0.168368 0.280543 0.438739 32.06 -0.297522 
763 2 0.256265 0.29412 0.257256 32.06 -0.238425 
1477 2 0.0666347 0.460745 0.427138 32.06 -0.26351 
1225 1 0.269121 0.0747421 0.421988 55.845 0.258913 
647 2 0.24225 0.0554984 0.379024 32.06 -0.241818 
1369 1 0.380391 0.183581 0.373408 55.845 0.266598 
1381 2 0.381399 0.254296 0.387684 32.06 -0.237272 
620 2 0.0485708 0.231557 0.269008 32.06 -0.264996 
1501 2 0.309503 0.419286 0.415893 32.06 -0.26179 
788 2 0.38003 0.453912 0.251583 32.06 -0.259381 
1213 2 0.0216434 0.129217 0.425237 32.06 -0.24339 
739 2 0.176361 0.402341 0.295241 32.06 -0.28036 
887 2 0.218883 0.475529 0.352015 32.06 -0.272631 
1489 1 0.375738 0.484135 0.376956 55.845 0.260068 
624 2 0.0358603 0.224252 0.356335 32.06 -0.240296 
892 1 0.438016 0.443207 0.269589 55.845 0.290844 
764 2 0.219966 0.497663 0.262243 32.06 -0.241246 
630 1 0.275036 0.207089 0.282021 55.845 0.249861 
926 2 0.481877 0.378072 0.299219 32.06 -0.2477 
628 1 0.256088 0.0169568 0.299521 55.845 0.257697 
1204 1 0.00858061 0.122525 0.47606 55.845 0.258691 
625 1 0.267802 0.022764 0.251733 55.845 0.250875 
738 2 0.202292 0.347224 0.267356 32.06 -0.247117 
1288 2 0.507924 0.233785 0.449239 32.06 -0.224947 
1245 2 0.268183 0.114377 0.456601 32.06 -0.256715 
1686 1 0.0580644 0.0497963 0.479473 55.845 0.280569 
1710 1 0.247924 0.0392576 0.481193 55.845 0.232459 
1348 1 0.173937 0.288189 0.480569 55.845 0.234546 
619 2 0.254669 0.257741 0.303257 32.06 -0.252582 
1254 1 0.463504 0.257046 0.475265 55.845 0.246865 
789 2 0.341672 0.209161 0.260221 32.06 -0.272447 
660 1 0.488834 0.124049 0.307456 55.845 0.280171 
749 1 0.40305 0.325379 0.283255 55.845 0.253499 
858 2 0.102551 0.433316 0.321723 32.06 -0.278516 
779 1 0.412029 0.246485 0.284593 55.845 0.224093 
776 1 0.449254 0.409288 0.33086 55.845 0.281678 
1269 2 0.409232 0.196659 0.447593 32.06 -0.24314 
782 2 0.35501 0.197244 0.311736 32.06 -0.280748 
626 1 0.368425 0.149032 0.280994 55.845 0.235177 
1372 1 0.396815 0.308158 0.478074 55.845 0.247289 
1389 2 0.453972 0.23454 0.400296 32.06 -0.234101 
701 1 0.0558608 0.173266 0.289331 55.845 0.263316 
1347 1 0.243636 0.354001 0.437377 55.845 0.259536 
882 2 0.303218 0.490484 0.251159 32.06 -0.291206 
1205 1 0.134985 0.182949 0.47396 55.845 0.235548 
1201 1 0.0201544 0.0540101 0.4238 55.845 0.288204 
756 1 0.32692 0.400955 0.329498 55.845 0.282669 
1723 2 0.317218 0.0606584 0.447611 32.06 -0.254258 
604 1 0.0806804 0.0637895 0.266921 55.845 0.258765 
1253 1 0.453316 0.165891 0.420901 55.845 0.292428 
633 1 0.245178 0.133498 0.375579 55.845 0.262325 
634 1 0.141874 0.0567581 0.321787 55.845 0.251182 
636 1 0.284928 0.140785 0.3268 55.845 0.271811 
754 1 0.204682 0.366186 0.320904 55.845 0.281274 
758 2 0.168706 0.232108 0.317493 32.06 -0.256804 
874 1 0.0753958 0.377869 0.371817 55.845 0.257483 
878 2 0.123143 0.305345 0.314109 32.06 -0.260208 
658 1 0.373627 0.0938497 0.314885 55.845 0.248682 
664 2 0.465946 0.0760093 0.259482 32.06 -0.247116 
778 1 0.355243 0.276845 0.330802 55.845 0.240825 
1335 2 0.0221358 0.403249 0.38793 32.06 -0.231539 
1136 1 0.400159 0.0171981 0.387105 55.845 0.236777 
902 2 0.377411 0.353285 0.311969 32.06 -0.251466 
1326 1 0.125722 0.367322 0.483038 55.845 0.23693 
748 1 0.318544 0.325272 0.284519 55.845 0.279454 
723 1 0.117076 0.381492 0.257911 55.845 0.253811 
1772 2 0.445508 0.0453166 0.419258 32.06 -0.260232 
1227 1 0.266452 0.176882 0.435839 55.845 0.266223 
1228 1 0.193035 0.0996256 0.482119 55.845 0.232945 
631 1 0.0956135 0.0608375 0.372594 55.845 0.273106 
648 2 0.149701 0.0354374 0.358605 32.06 -0.24313 
751 1 0.140049 0.28699 0.376453 55.845 0.247425 
768 2 0.225391 0.341003 0.353892 32.06 -0.234304 
1734 1 0.451589 0.0506739 0.472886 55.845 0.288389 
1249 1 0.372967 0.0454862 0.427131 55.845 0.258047 
655 1 0.332113 0.0829072 0.375921 55.845 0.252755 
672 2 0.397075 0.039726 0.344914 32.06 -0.2642 
775 1 0.295314 0.236836 0.381888 55.845 0.2602 
606 1 0.154323 0.151081 0.308229 55.845 0.260127 
886 2 0.26737 0.423047 0.345452 32.06 -0.248306 
1374 1 0.453767 0.431349 0.477449 55.845 0.243383 
662 2 0.298183 0.0385718 0.334397 32.06 -0.25701 
1370 1 0.469848 0.385578 0.425806 55.845 0.272669 
1239 2 0.213543 0.178295 0.388195 32.06 -0.254339 
1359 2 0.209698 0.387966 0.412951 32.06 -0.262498 
1263 2 0.411532 0.136625 0.389668 32.06 -0.267261 
1383 2 0.278833 0.246763 0.418192 32.06 -0.24738 
844 1 0.0634148 0.464238 0.294095 55.845 0.258057 
742 2 0.106798 0.32984 0.355968 32.06 -0.267456 
1219 2 0.0671611 0.24103 0.4058 32.06 -0.27878 
729 1 0.0586259 0.380877 0.431761 55.845 0.253334 
1724 2 0.122495 0.0412109 0.46172 32.06 -0.26032 
622 2 0.132787 0.117231 0.343427 32.06 -0.264375 
869 1 0.353553 0.488817 0.280722 55.845 0.244264 
609 1 0.0391231 0.088628 0.334355 55.845 0.258412 
640 2 0.189175 0.186525 0.274798 32.06 -0.26564 
755 1 0.176514 0.476577 0.297395 55.845 0.25995 
911 2 0.434324 0.493828 0.406964 32.06 -0.246008 
1244 2 0.202179 0.193854 0.44857 32.06 -0.269314 
760 2 0.271195 0.363546 0.301164 32.06 -0.23836 
1350 1 0.251211 0.428637 0.488735 55.845 0.239682 
750 1 0.252298 0.435254 0.276694 55.845 0.247971 
1364 2 0.127096 0.440731 0.457823 32.06 -0.290611 
657 1 0.453731 0.110481 0.365631 55.845 0.267545 
1252 1 0.385197 0.113784 0.477321 55.845 0.277608 
1243 2 0.339136 0.237538 0.45474 32.06 -0.268815 
1268 2 0.396271 0.337026 0.405138 32.06 -0.243822 
791 2 0.458432 0.166405 0.328671 32.06 -0.258029 
1230 1 0.266179 0.233258 0.474431 55.845 0.270611 
1384 2 0.270202 0.308286 0.460165 32.06 -0.250231 
1465 1 0.191259 0.445141 0.437317 55.845 0.245376 
895 1 0.287328 0.496063 0.328183 55.845 0.245367 
1388 2 0.458886 0.482913 0.449248 32.06 -0.266244 
635 1 0.245391 0.281441 0.337875 55.845 0.264067 
638 2 0.225843 0.0676451 0.313562 32.06 -0.263685 
803 1 0.46484 0.316389 0.373209 55.845 0.270745 
724 1 0.116445 0.310684 0.277814 55.845 0.250481 
792 2 0.446707 0.333708 0.335592 32.06 -0.253044 
1139 1 0.445496 0.00580646 0.338324 55.845 0.277285 
632 1 0.169233 0.197661 0.359599 55.845 0.251415 
752 1 0.205877 0.42126 0.378865 55.845 0.255926 
656 1 0.429872 0.226872 0.33173 55.845 0.236045 
1747 2 0.443606 0.112076 0.450845 32.06 -0.24455 
1202 1 0.150909 0.102665 0.431522 55.845 0.277888 
1322 1 0.128669 0.320847 0.418677 55.845 0.246377 
821 1 0.0295027 0.296299 0.277945 55.845 0.242067 
1226 1 0.393022 0.250936 0.425296 55.845 0.273999 
1346 1 0.331038 0.325066 0.4317 55.845 0.255803 
1722 2 0.386802 0.0518378 0.495964 32.06 -0.250331 
605 1 0.203362 0.076294 0.274793 55.845 0.269185 
726 1 0.11946 0.373842 0.325177 55.845 0.25028 
725 1 0.193598 0.270717 0.282546 55.845 0.282775 
1237 2 0.104414 0.0334729 0.412489 32.06 -0.245943 
1699 2 0.0890065 0.110116 0.447593 32.06 -0.258908 
621 2 0.0781592 0.143796 0.25537 32.06 -0.250559 
629 1 0.385391 0.0370011 0.274377 55.845 0.246726 
838 2 0.00240596 0.433316 0.321752 32.06 -0.276497 
783 2 0.443836 0.310473 0.256702 32.06 -0.264824 
1349 1 0.325922 0.373009 0.482537 55.845 0.269726 
1386 2 0.402751 0.374239 0.451848 32.06 -0.277748 
1371 1 0.383038 0.425782 0.432227 55.845 0.259439 
1405 2 0.476704 0.426121 0.390262 32.06 -0.251682 
614 2 0.0744412 0.10898 0.300035 32.06 -0.281412 
732 1 0.0271676 0.288239 0.341164 55.845 0.25955 
642 2 0.435154 0.133408 0.282522 32.06 -0.27663 
1466 1 0.310713 0.500477 0.426457 55.845 0.256561 
1206 1 0.0676042 0.252012 0.479304 55.845 0.235307 
1115 1 0.215827 0.00658529 0.34232 55.845 0.261484 
612 1 0.100468 0.233753 0.331779 55.845 0.277103 
737 2 0.0544942 0.301473 0.454765 32.06 -0.281739 
743 2 0.0858665 0.168035 0.35223 32.06 -0.259183 
888 2 0.136304 0.400407 0.404076 32.06 -0.253773 
777 1 0.390542 0.380336 0.373551 55.845 0.255083 
641 2 0.202871 0.084154 0.410448 32.06 -0.248476 
1363 2 0.304256 0.423606 0.462276 32.06 -0.258663 
761 2 0.213435 0.277143 0.384587 32.06 -0.265136 
767 2 0.31825 0.196068 0.357829 32.06 -0.273429 
618 2 0.115579 0.0221005 0.287497 32.06 -0.26776 
1242 2 0.268585 0.161315 0.493743 32.06 -0.266452 
1203 1 0.0910312 0.195476 0.43431 55.845 0.24436 
1323 1 0.0616977 0.447744 0.479861 55.845 0.255135 
1229 1 0.344672 0.175832 0.474274 55.845 0.269882 
1527 2 0.405143 0.448688 0.348671 32.06 -0.257895 
731 1 0.0433367 0.456801 0.357246 55.845 0.263515 
1221 2 0.0113564 0.184133 0.452571 32.06 -0.260926 
1261 2 0.299875 0.0289263 0.407272 32.06 -0.288583 
841 1 0.0275955 0.418987 0.253063 55.845 0.278632 
954 2 0.0275414 0.490304 0.266321 32.06 -0.241755 
1267 2 0.477651 0.328036 0.453336 32.06 -0.263552 
616 2 0.0210054 0.218978 0.312775 32.06 -0.244816 
617 2 0.0155327 0.0633504 0.371249 32.06 -0.254075 
1502 2 0.257605 0.495756 0.463891 32.06 -0.284168 
1218 2 0.0691935 0.180731 0.495695 32.06 -0.285383 
786 2 0.499441 0.291288 0.281114 32.06 -0.276229 
854 2 -0.0126296 0.346618 0.278287 32.06 -0.273414 
608 1 0.00133962 0.250189 0.38877 55.845 0.247719 
1744 2 0.317284 0.108805 0.502176 32.06 -0.260152 
784 2 0.371411 0.364326 0.257238 32.06 -0.237987 
1739 1 0.465446 0.117086 0.517546 55.845 0.284825 
1748 2 0.408491 0.180442 0.58666 32.06 -0.221207 
1921 1 0.0640628 0.316625 0.626683 55.845 0.239305 
1353 1 0.39511 0.459262 0.574963 55.845 0.260698 
2307 1 0.333682 0.0399649 0.627571 55.845 0.260428 
2348 2 0.407414 0.0453952 0.646771 32.06 -0.272074 
1825 1 0.271581 0.103425 0.635354 55.845 0.273808 
1901 1 0.000434749 0.115828 0.677476 55.845 0.2749 
1945 1 0.273911 0.316536 0.631076 55.845 0.250012 
1957 2 0.197118 0.317253 0.607962 32.06 -0.263795 
1726 2 0.447705 0.178186 0.504237 32.06 -0.251893 
1798 2 0.0600382 0.052828 0.550052 32.06 -0.26326 
1362 2 0.261109 0.370341 0.506444 32.06 -0.252958 
1861 2 0.406815 0.0956761 0.596093 32.06 -0.245242 
1240 2 0.187441 0.243457 0.508458 32.06 -0.258436 
2054 2 -0.0147256 0.37687 0.700477 32.06 -0.26973 
1827 1 0.342353 0.255359 0.627613 55.845 0.266957 
1366 2 0.456122 0.431425 0.548056 32.06 -0.277811 
1358 2 0.140447 0.261698 0.572973 32.06 -0.25018 
1692 1 0.127718 0.0423159 0.529502 55.845 0.248149 
1924 1 0.064436 0.253514 0.675412 55.845 0.264373 
1439 2 0.114711 0.365225 0.554729 32.06 -0.275549 
2044 1 0.0681568 0.444179 0.674882 55.845 0.255918 
1355 1 0.254457 0.484956 0.526461 55.845 0.25614 
2324 2 0.201812 0.051068 0.65394 32.06 -0.261223 
1845 2 0.281728 0.176547 0.651939 32.06 -0.257629 
1948 1 0.274606 0.246517 0.683406 55.845 0.262831 
1965 2 0.262715 0.368914 0.656829 32.06 -0.270302 
2068 1 0.268335 0.444867 0.682219 55.845 0.244573 
1360 2 0.186304 0.411303 0.515465 32.06 -0.267029 
2319 2 0.265634 0.0307304 0.604649 32.06 -0.264484 
1387 2 0.369423 0.45509 0.504942 32.06 -0.26845 
1382 2 0.434497 0.36656 0.507457 32.06 -0.28239 
1338 2 0.0559487 0.379333 0.500622 32.06 -0.259799 
2092 1 0.469031 0.444768 0.681839 55.845 0.271305 
1339 2 0.137738 0.501163 0.510542 32.06 -0.257786 
1820 2 0.0638457 0.16883 0.645093 32.06 -0.261234 
1233 1 0.383425 0.238896 0.573981 55.845 0.280662 
1356 1 0.316859 0.442195 0.53134 55.845 0.274059 
1235 1 0.239441 0.312145 0.532543 55.845 0.270417 
1981 2 0.479896 0.248379 0.546576 32.06 -0.251613 
1342 2 0.246187 0.425143 0.55284 32.06 -0.276827 
1264 2 0.28575 0.293717 0.505449 32.06 -0.236007 
1837 2 0.215824 0.113488 0.609335 32.06 -0.263417 
1849 1 0.467211 0.109914 0.624181 55.845 0.266733 
1819 2 0.137328 0.313456 0.65589 32.06 -0.261427 
2343 2 0.464249 0.0373087 0.594928 32.06 -0.265378 
1222 2 0.252663 0.252963 0.549797 32.06 -0.252536 
1234 1 0.199152 0.179578 0.523924 55.845 0.2569 
2084 2 0.12357 0.442439 0.703132 32.06 -0.260076 
1834 1 0.204746 0.046825 0.731877 55.845 0.265993 
1836 1 0.336434 0.106018 0.724915 55.845 0.275757 
1354 1 0.266794 0.390456 0.584613 55.845 0.239499 
1863 2 0.465387 0.266962 0.605482 32.06 -0.248667 
1954 1 0.192865 0.24142 0.729573 55.845 0.257663 
1958 2 0.19976 0.17305 0.705817 32.06 -0.25635 
1926 1 0.132432 0.372815 0.676892 55.845 0.272136 
2323 2 0.354212 0.11627 0.644964 32.06 -0.258614 
1843 2 0.336661 0.324568 0.664414 32.06 -0.269136 
2078 2 0.18189 0.368941 0.7055 32.06 -0.257708 
1258 1 0.39801 0.190952 0.533911 55.845 0.278144 
1933 2 0.0621517 0.250974 0.602618 32.06 -0.256794 
1858 1 0.399253 0.0299577 0.723161 55.845 0.263752 
1812 1 0.129945 0.109178 0.724213 55.845 0.26579 
1864 2 0.458941 0.0952601 0.697856 32.06 -0.264817 
1212 1 0.135851 0.253823 0.533756 55.845 0.24961 
1978 1 0.405845 0.248344 0.729465 55.845 0.262323 
1982 2 0.398454 0.163917 0.699286 32.06 -0.257073 
1872 2 0.467857 0.0373173 0.748754 32.06 -0.263648 
1830 1 0.339661 0.178639 0.680061 55.845 0.264356 
2098 1 0.400318 0.448579 0.734089 55.845 0.27863 
2102 2 0.404078 0.382906 0.710212 32.06 -0.263934 
1271 2 0.468518 0.060157 0.544908 32.06 -0.262632 
1224 2 0.137742 0.176548 0.551577 32.06 -0.25434 
1712 1 0.328274 0.100418 0.578632 55.845 0.248983 
1266 2 0.391117 0.256991 0.516425 32.06 -0.252113 
2074 1 0.20557 0.440737 0.732914 55.845 0.26066 
1247 2 0.413809 0.125234 0.543427 32.06 -0.250622 
1231 1 0.26423 0.162077 0.580052 55.845 0.268384 
1248 2 0.3231 0.188608 0.549432 32.06 -0.2593 
1351 1 0.206012 0.379869 0.633214 55.845 0.24988 
1368 2 0.304165 0.37656 0.552934 32.06 -0.272077 
1801 1 0.0627299 0.103067 0.628503 55.845 0.261667 
1716 1 0.3373 0.0578661 0.526832 55.845 0.272932 
1255 1 0.472888 0.173972 0.572039 55.845 0.272302 
1824 2 0.0594705 0.0542485 0.749059 32.06 -0.27796 
1375 1 0.449954 0.378003 0.58287 55.845 0.250044 
1950 1 0.331196 0.378933 0.684166 55.845 0.261215 
1989 2 0.474978 0.394901 0.650627 32.06 -0.268852 
2082 2 0.341608 0.438907 0.711222 32.06 -0.267543 
1815 2 0.122081 0.390522 0.597582 32.06 -0.279447 
1935 2 0.045304 0.440229 0.597701 32.06 -0.25369 
1839 2 0.273605 0.233635 0.602947 32.06 -0.259069 
1959 2 0.346132 0.387053 0.60368 32.06 -0.262629 
1939 2 0.198195 0.440624 0.658226 32.06 -0.279873 
1806 1 0.137477 0.179981 0.673999 55.845 0.276549 
1816 2 0.0730164 0.118257 0.695856 32.06 -0.263314 
1209 1 0.19391 0.22709 0.580131 55.845 0.26802 
1972 1 0.452476 0.243356 0.67462 55.845 0.254802 
1956 1 0.335486 0.314319 0.733287 55.845 0.255929 
1840 2 0.259137 0.102308 0.703091 32.06 -0.253758 
1844 2 0.217579 0.251287 0.656968 32.06 -0.261532 
1960 2 0.260656 0.303354 0.709314 32.06 -0.267938 
1923 1 0.127675 0.438148 0.627279 55.845 0.25237 
1378 1 0.379501 0.374411 0.532743 55.845 0.251421 
1868 2 0.395448 0.258079 0.656788 32.06 -0.280425 
1947 1 0.335838 0.451414 0.630056 55.845 0.258225 
1988 2 0.403796 0.453319 0.65218 32.06 -0.264888 
1211 1 0.0540716 0.300254 0.529148 55.845 0.255892 
1318 2 0.0511579 0.236882 0.554395 32.06 -0.2613 
1331 1 0.124643 0.4346 0.531266 55.845 0.253654 
1236 1 0.324578 0.259919 0.527916 55.845 0.281027 
1691 1 0.0699696 0.126154 0.527243 55.845 0.26129 
1835 1 0.270588 0.177488 0.730988 55.845 0.258622 
1898 1 0.00113255 0.180978 0.629663 55.845 0.261378 
1955 1 0.267483 0.373874 0.732824 55.845 0.257746 
1259 1 0.471219 0.329642 0.528213 55.845 0.254078 
1869 2 0.452028 0.173904 0.658599 32.06 -0.249147 
1984 2 0.466927 0.320611 0.7092 32.06 -0.274625 
1702 2 0.247202 0.0484971 0.549617 32.06 -0.269798 
1208 1 0.137439 0.330225 0.579247 55.845 0.26152 
1804 1 0.0701401 0.0479461 0.676081 55.845 0.264688 
1232 1 0.312717 0.314508 0.579507 55.845 0.262786 
2058 2 0.0726913 0.306523 0.70753 32.06 -0.263021 
1828 1 0.266634 0.0453851 0.681759 55.845 0.266989 
1713 1 0.400608 0.0366032 0.568059 55.845 0.252829 
1802 1 0.211083 0.182681 0.630095 55.845 0.26071 
1983 2 0.454806 0.46253 0.598083 32.06 -0.255698 
1932 1 0.133535 0.309651 0.730181 55.845 0.273434 
1826 1 0.407847 0.185392 0.624053 55.845 0.27817 
1946 1 0.400936 0.387597 0.633035 55.845 0.26273 
1811 1 0.0614573 0.172467 0.724226 55.845 0.268738 
1805 1 0.211488 0.120777 0.678101 55.845 0.278582 
1925 1 0.199234 0.308453 0.679418 55.845 0.278526 
1931 1 0.0682116 0.374176 0.72513 55.845 0.272593 
1829 1 0.395718 0.102199 0.674548 55.845 0.279055 
1949 1 0.397823 0.315088 0.682231 55.845 0.253191 
1223 2 0.193615 0.114523 0.554369 32.06 -0.272928 
1207 1 0.0643819 0.191123 0.580652 55.845 0.277265 
1818 2 0.15747 0.0600449 0.70388 32.06 -0.249942 
1852 1 0.463969 0.0394617 0.671717 55.845 0.268379 
1938 2 0.125624 0.241614 0.689451 32.06 -0.253981 
1979 1 0.471144 0.382581 0.730855 55.845 0.273709 
2283 1 0.140472 0.0509923 0.626136 55.845 0.267345 
1688 1 0.115242 0.110263 0.579015 55.845 0.247335 
1842 2 0.329995 0.0385147 0.70437 32.06 -0.264299 
1325 1 0.179407 0.352254 0.537068 55.845 0.24898 
1962 2 0.333073 0.23274 0.703395 32.06 -0.272089 
1969 1 0.452521 0.314944 0.630219 55.845 0.264848 
1327 1 0.0653878 0.390154 0.573616 55.845 0.25046 
1217 2 0.136085 0.174429 0.607893 32.06 -0.267487 
1813 2 0.0707096 0.0425803 0.607034 32.06 -0.283896 
1337 2 0.0706084 0.376178 0.652116 32.06 -0.296143 
1343 2 0.273773 0.457328 0.611139 32.06 -0.277553 
2299 2 0.135639 0.110053 0.659365 32.06 -0.263788 
1859 1 0.470716 0.17695 0.722602 55.845 0.274517 
1241 2 0.334576 0.173261 0.601271 32.06 -0.234399 
1332 1 0.202797 0.458375 0.580581 55.845 0.240677 
1361 2 0.377607 0.317167 0.603803 32.06 -0.257091 
1367 2 0.380793 0.302514 0.555032 32.06 -0.250218 
1715 1 0.261709 0.120858 0.526524 55.845 0.249567 
1689 1 0.207297 0.0592572 0.579208 55.845 0.258813 
1803 1 0.129426 0.242438 0.62928 55.845 0.267818 
1990 2 0.468736 0.236007 0.746729 32.06 -0.263831 
1943 2 0.121288 0.170132 0.747888 32.06 -0.266601 
1379 1 0.448119 0.496395 0.523368 55.845 0.243199 
1238 2 0.125711 0.0958954 0.503672 32.06 -0.266409 
1941 2 0.00678786 0.250109 0.647435 32.06 -0.286496 
1930 1 0.0012153 0.242121 0.725352 55.845 0.27014 
1438 2 -0.00242177 0.393978 0.556344 32.06 -0.276669 
1785 1 0.00229831 0.0551587 0.577178 55.845 0.243927 
1319 2 0.000532159 0.123719 0.55578 32.06 -0.273392 
1967 2 0.342977 0.175092 0.746003 32.06 -0.268531 
1365 2 0.13158 0.311549 0.505847 32.06 -0.292378 
2646 1 0.194393 0.442267 0.879904 55.845 0.262936 
2754 2 0.00964152 0.464476 0.951852 32.06 -0.267805 
2530 1 0.138145 0.245231 0.929349 55.845 0.25847 
2809 1 0.470416 0.449709 0.828908 55.845 0.250045 
2641 1 0.0728551 0.240486 0.82707 55.845 0.237075 
2553 1 0.414309 0.342172 0.979926 55.845 0.248236 
2547 1 0.333802 0.174531 0.829479 55.845 0.260522 
2703 2 0.470848 0.380097 0.802448 32.06 -0.265146 
2545 1 0.268227 0.0406119 0.824631 55.845 0.257319 
2557 2 0.20127 0.0537101 0.801275 32.06 -0.283787 
2665 1 0.270302 0.242152 0.834103 55.845 0.286202 
2677 2 0.206121 0.23907 0.809919 32.06 -0.253546 
2087 2 0.31886 0.356431 0.762995 32.06 -0.251397 
2643 1 0.139691 0.378212 0.829806 55.845 0.233804 
2569 1 0.462373 0.0339989 0.81953 55.845 0.262785 
2581 2 0.383843 0.0285564 0.801577 32.06 -0.268726 
2689 1 0.473525 0.24449 0.823551 55.845 0.254193 
2701 2 0.396075 0.23861 0.802621 32.06 -0.269258 
2410 1 0.140551 0.0548407 0.928216 55.845 0.256949 
1975 1 0.407581 0.179447 0.771607 55.845 0.26893 
2524 1 0.143833 0.126797 0.882643 55.845 0.272749 
2541 2 0.0781339 0.113656 0.858153 32.06 -0.259351 
2644 1 0.13172 0.302385 0.878515 55.845 0.234083 
2661 2 0.0746769 0.31751 0.857575 32.06 -0.290228 
2652 1 0.26064 0.484837 0.933353 55.845 0.258459 
2761 1 0.0752457 0.452719 0.829733 55.845 0.274711 
2548 1 0.346594 0.107986 0.879978 55.845 0.265822 
2565 2 0.281246 0.110386 0.859915 32.06 -0.253983 
2668 1 0.337876 0.308512 0.884235 55.845 0.276937 
2685 2 0.255263 0.300288 0.854894 32.06 -0.258486 
2621 1 0.0686481 0.176877 0.875656 55.845 0.253567 
1833 1 0.341309 0.0474811 0.77079 55.845 0.249213 
2424 2 0.213069 0.0530208 0.94916 32.06 -0.268378 