ITEM: TIMESTEP
2300
ITEM: NUMBER OF ATOMS
5880
ITEM: BOX BOUNDS pp pp ff
-28.002 28.002
-28.002 28.002
0 34.092
ITEM: ATOMS id type xs ys zs mass q 
259 1 1.81499e-05 0.107135 0.208237 55.845 -2.10883e-07 
267 1 -1.60942e-05 0.0357048 0.208305 55.845 8.09386e-08 
269 1 0.0357215 0.0714199 0.208309 55.845 1.82874e-07 
271 1 0.0714051 0.107028 0.208396 55.845 -4.53905e-07 
279 1 0.0357247 -3.56177e-05 0.208286 55.845 -9.63705e-09 
281 1 0.0714756 0.0357414 0.208415 55.845 -8.48377e-08 
283 1 0.107068 0.0713836 0.208246 55.845 -2.96058e-07 
293 1 0.107155 1.48e-05 0.208352 55.845 -5.64588e-07 
361 1 -1.66543e-05 0.107152 0.124517 55.845 2.52638e-07 
369 1 3.55315e-05 0.0357095 0.12466 55.845 1.19696e-07 
370 1 -7.92222e-05 0.0714086 0.166387 55.845 4.1823e-09 
371 1 0.0357679 0.0714192 0.124644 55.845 2.91079e-07 
372 1 0.0356658 0.107111 0.16644 55.845 3.53125e-07 
373 1 0.0714025 0.107102 0.12444 55.845 1.06286e-07 
380 1 3.3889e-05 -9.5711e-05 0.166319 55.845 -1.90349e-07 
381 1 0.0357112 -2.28303e-05 0.124522 55.845 3.11089e-07 
382 1 0.0356866 0.035711 0.166493 55.845 2.00963e-07 
383 1 0.0714247 0.0357489 0.124681 55.845 3.2733e-07 
384 1 0.0714705 0.0714021 0.166491 55.845 2.63866e-07 
385 1 0.107096 0.071438 0.124419 55.845 -1.23007e-08 
386 1 0.107008 0.107062 0.166305 55.845 1.48454e-07 
394 1 0.0713882 5.90564e-06 0.166529 55.845 5.60277e-08 
395 1 0.107155 -1.41427e-05 0.124554 55.845 -5.99748e-08 
396 1 0.107161 0.0356827 0.166487 55.845 4.70602e-08 
463 1 0 0.107143 0.0416667 55.845 -1.3501e-07 
471 1 0 0.0357143 0.0416667 55.845 -3.09129e-07 
472 1 7.58865e-07 0.0714094 0.0831736 55.845 -3.25991e-07 
473 1 0.0357143 0.0714286 0.0416667 55.845 -1.23226e-07 
474 1 0.0356593 0.1072 0.0831442 55.845 -8.15054e-08 
475 1 0.0714286 0.107143 0.0416667 55.845 -2.07298e-07 
482 1 -4.80282e-05 1.84933e-05 0.0831733 55.845 -5.21339e-07 
483 1 0.0357143 0 0.0416667 55.845 1.69174e-08 
484 1 0.0356984 0.0357155 0.0831801 55.845 -1.93615e-07 
485 1 0.0714286 0.0357143 0.0416667 55.845 -4.4958e-09 
486 1 0.0713479 0.0714276 0.0830367 55.845 3.08232e-08 
487 1 0.107143 0.0714286 0.0416667 55.845 -2.52648e-07 
488 1 0.107148 0.107187 0.0831369 55.845 -5.76103e-07 
496 1 0.0714277 1.42001e-05 0.0831588 55.845 -2.20613e-08 
497 1 0.107143 0 0.0416667 55.845 -1.69036e-07 
498 1 0.107114 0.0357267 0.0831143 55.845 -1.59582e-07 
567 1 0 0.0714286 0 55.845 -2.92481e-08 
568 1 0.0357143 0.107143 0 55.845 2.77832e-07 
572 1 0 0 0 55.845 3.54147e-07 
573 1 0.0357143 0.0357143 0 55.845 4.2294e-07 
574 1 0.0714286 0.0714286 0 55.845 4.18161e-07 
575 1 0.107143 0.107143 0 55.845 2.66975e-07 
579 1 0.0714286 0 0 55.845 4.18575e-07 
580 1 0.107143 0.0357143 0 55.845 3.77544e-07 
285 1 0.142804 0.107093 0.208279 55.845 -4.88812e-07 
295 1 0.14285 0.0356921 0.20829 55.845 -3.71353e-07 
297 1 0.17851 0.0714756 0.208265 55.845 -2.97646e-08 
299 1 0.214294 0.10717 0.208261 55.845 9.70034e-08 
307 1 0.178582 -2.59018e-05 0.208304 55.845 -2.27883e-07 
309 1 0.214301 0.0356852 0.208245 55.845 -2.14832e-07 
311 1 0.249996 0.0714771 0.208183 55.845 -3.13508e-07 
387 1 0.142825 0.107078 0.12466 55.845 3.22773e-08 
397 1 0.142894 0.0356501 0.124582 55.845 -1.05124e-07 
398 1 0.142826 0.0714201 0.166435 55.845 -6.14854e-08 
399 1 0.178559 0.0714217 0.124651 55.845 1.23205e-07 
400 1 0.178527 0.107188 0.16644 55.845 1.2013e-07 
401 1 0.214308 0.107195 0.124661 55.845 4.12904e-07 
408 1 0.142879 1.84977e-05 0.166406 55.845 1.20501e-07 
409 1 0.178526 -3.5334e-05 0.124445 55.845 -1.25501e-07 
410 1 0.178584 0.0356495 0.166443 55.845 1.64655e-07 
411 1 0.214297 0.0356013 0.124532 55.845 1.74533e-07 
412 1 0.214219 0.0714272 0.166344 55.845 -1.92462e-07 
413 1 0.249951 0.0713908 0.124547 55.845 -3.50783e-07 
414 1 0.250011 0.107175 0.166405 55.845 1.67275e-07 
424 1 0.214311 -1.08885e-05 0.166375 55.845 3.37955e-07 
426 1 0.249935 0.0357022 0.166389 55.845 5.67795e-08 
489 1 0.142857 0.107143 0.0416667 55.845 -9.55834e-08 
499 1 0.142857 0.0357143 0.0416667 55.845 -2.86957e-07 
500 1 0.142873 0.0713751 0.0832124 55.845 -2.59636e-07 
501 1 0.178571 0.0714286 0.0416667 55.845 -1.39135e-07 
502 1 0.178545 0.107186 0.0831853 55.845 -1.64512e-07 
503 1 0.214286 0.107143 0.0416667 55.845 -5.53375e-08 
510 1 0.142858 -2.93981e-05 0.0830605 55.845 -1.78036e-07 
511 1 0.178571 0 0.0416667 55.845 -2.4409e-07 
512 1 0.178573 0.0357525 0.0830903 55.845 -2.64094e-07 
513 1 0.214286 0.0357143 0.0416667 55.845 -3.41296e-07 
514 1 0.214286 0.0714859 0.0831581 55.845 -7.47569e-08 
515 1 0.25 0.0714286 0.0416667 55.845 -4.51481e-07 
516 1 0.250009 0.107149 0.0831516 55.845 -1.74101e-07 
526 1 0.21433 -3.50534e-05 0.0831185 55.845 1.56671e-07 
528 1 0.25 0.0356926 0.0830846 55.845 -1.30659e-07 
581 1 0.142857 0.0714286 0 55.845 3.30551e-07 
582 1 0.178571 0.107143 0 55.845 4.39123e-07 
586 1 0.142857 0 0 55.845 2.55934e-07 
587 1 0.178571 0.0357143 0 55.845 4.74115e-07 
588 1 0.214286 0.0714286 0 55.845 1.8683e-07 
589 1 0.25 0.107143 0 55.845 3.21312e-07 
594 1 0.214286 0 0 55.845 4.85143e-07 
595 1 0.25 0.0357143 0 55.845 2.47149e-07 
313 1 0.285672 0.107122 0.208179 55.845 -5.4224e-07 
323 1 0.250023 2.30067e-05 0.208283 55.845 -2.13381e-07 
325 1 0.285762 0.0357143 0.208207 55.845 -7.22967e-07 
327 1 0.321431 0.071409 0.208297 55.845 -6.17104e-07 
329 1 0.357145 0.107147 0.208211 55.845 -4.52852e-07 
337 1 0.321382 1.19867e-05 0.208289 55.845 -4.87226e-07 
339 1 0.357126 0.0356849 0.20826 55.845 -6.59512e-07 
415 1 0.285752 0.107142 0.124601 55.845 -2.50144e-07 
425 1 0.250048 -4.72176e-05 0.124469 55.845 1.11273e-07 
427 1 0.285723 0.0357294 0.124557 55.845 -4.17783e-07 
428 1 0.285665 0.071456 0.16642 55.845 -2.10728e-07 
429 1 0.321441 0.0714372 0.124573 55.845 -4.01509e-07 
430 1 0.321436 0.107122 0.166395 55.845 4.15491e-07 
431 1 0.357166 0.107096 0.124559 55.845 9.75366e-08 
439 1 0.321504 4.12249e-05 0.124669 55.845 -2.55168e-07 
440 1 0.321438 0.0357575 0.166355 55.845 2.75764e-07 
441 1 0.357231 0.0356998 0.124567 55.845 -1.99607e-07 
442 1 0.35713 0.0713976 0.166357 55.845 5.52477e-07 
517 1 0.285714 0.107143 0.0416667 55.845 -1.25456e-07 
527 1 0.25 0 0.0416667 55.845 -2.14858e-07 
529 1 0.285714 0.0357143 0.0416667 55.845 -4.97734e-07 
530 1 0.285688 0.0713821 0.0831176 55.845 -1.00072e-07 
531 1 0.321429 0.0714286 0.0416667 55.845 -3.62454e-07 
532 1 0.321465 0.107131 0.0831446 55.845 1.77097e-07 
533 1 0.357143 0.107143 0.0416667 55.845 -2.22577e-07 
603 1 0.357143 0.0714286 0 55.845 7.92919e-07 
541 1 0.321429 0 0.0416667 55.845 -4.80523e-07 
542 1 0.321455 0.0357993 0.0831456 55.845 -2.03726e-08 
543 1 0.357143 0.0357143 0.0416667 55.845 -2.75105e-07 
544 1 0.357178 0.0714076 0.0832513 55.845 4.01678e-07 
602 1 0.321429 0.0357143 0 55.845 4.56406e-07 
596 1 0.285714 0.0714286 0 55.845 2.66679e-07 
597 1 0.321429 0.107143 0 55.845 5.78303e-07 
612 1 0.464286 0.0357143 0 55.845 3.70044e-07 
611 1 0.428571 0 0 55.845 3.97201e-07 
610 1 0.464286 0.107143 0 55.845 2.01473e-07 
609 1 0.428571 0.0714286 0 55.845 2.73655e-07 
608 1 0.392857 0.0357143 0 55.845 7.45016e-07 
341 1 0.392907 0.0714154 0.208242 55.845 -5.8243e-07 
343 1 0.428555 0.107148 0.208312 55.845 -6.15664e-07 
348 1 0.392829 -5.29184e-05 0.208286 55.845 -6.6871e-07 
350 1 0.428533 0.0356599 0.208332 55.845 -5.39144e-07 
352 1 0.464272 0.0714106 0.208304 55.845 -3.74916e-07 
355 1 0.464309 -3.80906e-05 0.208253 55.845 -5.62979e-07 
443 1 0.392894 0.0714644 0.124666 55.845 -9.35537e-08 
444 1 0.392902 0.107117 0.166417 55.845 2.64904e-07 
445 1 0.428572 0.107133 0.124743 55.845 -8.26083e-08 
604 1 0.392857 0.107143 0 55.845 5.76334e-07 
450 1 0.392826 -3.40446e-05 0.124595 55.845 -4.43798e-07 
451 1 0.392823 0.0357632 0.166395 55.845 6.11108e-07 
452 1 0.428586 0.0356766 0.124707 55.845 -1.85107e-07 
453 1 0.428594 0.0713966 0.166527 55.845 3.42401e-07 
454 1 0.464296 0.071397 0.12463 55.845 1.05953e-08 
455 1 0.464286 0.107122 0.166351 55.845 1.55407e-07 
456 1 0.428535 -4.17085e-05 0.166522 55.845 2.68117e-07 
457 1 0.464307 -4.5208e-05 0.124637 55.845 -2.32688e-07 
458 1 0.464259 0.0357263 0.166424 55.845 3.79284e-07 
545 1 0.392857 0.0714286 0.0416667 55.845 -7.82229e-08 
546 1 0.392896 0.107125 0.083127 55.845 1.59123e-07 
547 1 0.428571 0.107143 0.0416667 55.845 -4.29617e-07 
552 1 0.392857 0 0.0416667 55.845 -4.29206e-07 
553 1 0.392888 0.0357216 0.0831481 55.845 3.49944e-07 
554 1 0.428571 0.0357143 0.0416667 55.845 -2.82218e-07 
555 1 0.4286 0.071432 0.083168 55.845 2.22242e-07 
556 1 0.464286 0.0714286 0.0416667 55.845 -4.83491e-07 
557 1 0.464302 0.107084 0.0831688 55.845 -2.83276e-07 
558 1 0.428598 -1.22533e-05 0.0831273 55.845 -1.30523e-07 
559 1 0.464286 0 0.0416667 55.845 -4.13528e-07 
560 1 0.464329 0.0356873 0.0831049 55.845 -1.63632e-08 
255 1 -1.12311e-05 0.17861 0.208224 55.845 -3.77184e-07 
257 1 0.0357422 0.214232 0.208213 55.845 -4.34462e-07 
261 1 0.0356995 0.142733 0.208292 55.845 -5.91297e-07 
263 1 0.0713648 0.178593 0.208295 55.845 -6.54871e-07 
265 1 0.1072 0.214303 0.208293 55.845 -2.24888e-07 
273 1 0.107124 0.142831 0.208371 55.845 -5.9134e-07 
357 1 5.19956e-05 0.17858 0.124507 55.845 -1.56917e-07 
358 1 -3.98292e-05 0.214271 0.166383 55.845 1.00918e-07 
359 1 0.0357197 0.214281 0.124683 55.845 -1.6261e-07 
360 1 0.0357915 0.249978 0.166517 55.845 2.45863e-07 
362 1 -2.27303e-05 0.14284 0.166452 55.845 3.83033e-07 
363 1 0.0357175 0.142873 0.124638 55.845 -8.25524e-08 
364 1 0.0357314 0.178512 0.166407 55.845 1.38412e-07 
365 1 0.0714707 0.178625 0.124686 55.845 -1.52072e-07 
366 1 0.0715398 0.214332 0.166448 55.845 2.83161e-07 
367 1 0.107091 0.214356 0.124529 55.845 2.93968e-07 
368 1 0.107177 0.249957 0.16643 55.845 7.29297e-07 
374 1 0.0714034 0.142781 0.166402 55.845 5.57082e-08 
375 1 0.107168 0.142806 0.124624 55.845 -9.99441e-08 
376 1 0.107141 0.178592 0.166376 55.845 6.12157e-08 
459 1 0 0.178571 0.0416667 55.845 -3.40485e-07 
460 1 -3.20392e-05 0.214341 0.0831785 55.845 -1.17472e-07 
461 1 0.0357143 0.214286 0.0416667 55.845 -4.3189e-07 
462 1 0.0356742 0.24998 0.0832278 55.845 -2.09246e-07 
464 1 -1.79627e-05 0.142886 0.0830875 55.845 1.37883e-07 
465 1 0.0357143 0.142857 0.0416667 55.845 -2.66403e-07 
466 1 0.0357411 0.178611 0.08315 55.845 -9.9609e-08 
467 1 0.0714286 0.178571 0.0416667 55.845 -3.26843e-07 
468 1 0.0714227 0.214366 0.0831042 55.845 2.0249e-08 
469 1 0.107143 0.214286 0.0416667 55.845 -1.11884e-07 
470 1 0.107181 0.250047 0.0830641 55.845 9.2583e-08 
476 1 0.0714261 0.142971 0.0830642 55.845 -3.3247e-07 
477 1 0.107143 0.142857 0.0416667 55.845 -1.75905e-07 
478 1 0.107146 0.178544 0.0831884 55.845 -1.66066e-07 
561 1 0 0.214286 0 55.845 4.27491e-07 
562 1 0.0357143 0.25 0 55.845 1.94628e-07 
563 1 0 0.142857 0 55.845 1.68848e-07 
564 1 0.0357143 0.178571 0 55.845 2.43586e-07 
565 1 0.0714286 0.214286 0 55.845 5.89475e-07 
566 1 0.107143 0.25 0 55.845 5.30959e-07 
569 1 0.0714286 0.142857 0 55.845 1.45001e-07 
570 1 0.107143 0.178571 0 55.845 4.8116e-07 
275 1 0.142834 0.178523 0.20824 55.845 -1.99183e-07 
277 1 0.178613 0.214256 0.208163 55.845 -4.10325e-07 
287 1 0.178503 0.142868 0.208287 55.845 -2.3685e-08 
289 1 0.214218 0.178593 0.20825 55.845 -7.98515e-08 
291 1 0.250033 0.214224 0.208109 55.845 -2.45533e-07 
301 1 0.24992 0.142884 0.208174 55.845 7.19281e-09 
377 1 0.142876 0.178551 0.124644 55.845 1.5645e-07 
378 1 0.142804 0.214316 0.166374 55.845 2.47849e-07 
379 1 0.178563 0.214313 0.124559 55.845 -7.01184e-08 
388 1 0.142812 0.142749 0.16642 55.845 -1.52533e-07 
389 1 0.178594 0.14285 0.124597 55.845 3.94517e-07 
390 1 0.178598 0.178507 0.166368 55.845 -3.14037e-08 
391 1 0.214261 0.17856 0.124523 55.845 1.19859e-07 
392 1 0.214243 0.214295 0.166392 55.845 -4.17423e-07 
393 1 0.249975 0.214324 0.124638 55.845 -1.5879e-07 
402 1 0.214325 0.142885 0.16645 55.845 1.79075e-07 
403 1 0.249966 0.142889 0.124495 55.845 2.19735e-07 
404 1 0.249902 0.178607 0.166451 55.845 -1.06036e-07 
479 1 0.142857 0.178571 0.0416667 55.845 -9.27908e-08 
480 1 0.142831 0.214281 0.083056 55.845 1.60757e-07 
481 1 0.178571 0.214286 0.0416667 55.845 -2.16176e-07 
490 1 0.142854 0.142889 0.083163 55.845 -3.48853e-07 
491 1 0.178571 0.142857 0.0416667 55.845 1.01372e-07 
492 1 0.178571 0.17855 0.0831341 55.845 -2.7262e-07 
493 1 0.214286 0.178571 0.0416667 55.845 -1.50925e-07 
494 1 0.214266 0.214245 0.0830442 55.845 -4.08377e-07 
495 1 0.25 0.214286 0.0416667 55.845 -3.31723e-07 
504 1 0.214293 0.14285 0.0831365 55.845 -1.32596e-07 
505 1 0.25 0.142857 0.0416667 55.845 -3.18543e-09 
506 1 0.249969 0.178592 0.0831693 55.845 -3.54306e-07 
571 1 0.142857 0.214286 0 55.845 5.90805e-07 
576 1 0.142857 0.142857 0 55.845 3.00411e-07 
577 1 0.178571 0.178571 0 55.845 3.77205e-07 
578 1 0.214286 0.214286 0 55.845 2.66061e-07 
583 1 0.214286 0.142857 0 55.845 2.83553e-07 
584 1 0.25 0.178571 0 55.845 1.95797e-07 
303 1 0.285701 0.178573 0.208339 55.845 -4.49975e-08 
305 1 0.321484 0.214301 0.208198 55.845 -2.6553e-07 
315 1 0.321392 0.142868 0.208135 55.845 -1.2105e-07 
317 1 0.357235 0.178577 0.208168 55.845 -2.80042e-07 
405 1 0.285651 0.178564 0.124598 55.845 1.64525e-07 
406 1 0.285731 0.214324 0.166389 55.845 1.03356e-07 
407 1 0.321402 0.214245 0.124468 55.845 1.23707e-07 
416 1 0.28563 0.142772 0.166382 55.845 3.70146e-07 
417 1 0.32141 0.14286 0.12466 55.845 2.30771e-07 
418 1 0.321345 0.178561 0.166407 55.845 2.04921e-07 
419 1 0.357161 0.178547 0.124529 55.845 -2.38756e-08 
420 1 0.357168 0.214239 0.166375 55.845 9.7731e-08 
432 1 0.357118 0.142835 0.166355 55.845 4.61237e-07 
507 1 0.285714 0.178571 0.0416667 55.845 -1.12847e-07 
508 1 0.2857 0.214225 0.0831412 55.845 -3.76217e-07 
509 1 0.321429 0.214286 0.0416667 55.845 -2.82932e-07 
518 1 0.285734 0.14286 0.0831371 55.845 1.47374e-07 
519 1 0.321429 0.142857 0.0416667 55.845 -5.15495e-08 
520 1 0.321465 0.178509 0.0831862 55.845 -1.46755e-07 
521 1 0.357143 0.178571 0.0416667 55.845 -4.75907e-07 
522 1 0.357086 0.214266 0.0831644 55.845 -1.43937e-07 
534 1 0.357177 0.142804 0.0831495 55.845 -2.77894e-08 
585 1 0.285714 0.214286 0 55.845 3.50104e-07 
590 1 0.285714 0.142857 0 55.845 4.65612e-07 
591 1 0.321429 0.178571 0 55.845 3.92989e-07 
592 1 0.357143 0.214286 0 55.845 4.34446e-07 
598 1 0.357143 0.142857 0 55.845 3.62834e-07 
319 1 0.392885 0.214237 0.20817 55.845 -1.55753e-07 
321 1 0.428514 0.250024 0.20817 55.845 -2.00732e-07 
331 1 0.392881 0.142809 0.208269 55.845 -6.33915e-07 
333 1 0.428618 0.178583 0.208234 55.845 -2.73331e-07 
335 1 0.464325 0.214279 0.208341 55.845 -1.44656e-07 
345 1 0.464241 0.142844 0.208265 55.845 -2.6004e-07 
606 1 0.464286 0.178571 0 55.845 4.06485e-07 
421 1 0.392874 0.214217 0.124553 55.845 2.4411e-08 
422 1 0.392797 0.249977 0.166323 55.845 2.93047e-07 
423 1 0.428583 0.25002 0.124526 55.845 3.00193e-07 
433 1 0.392853 0.142797 0.124573 55.845 -1.96971e-07 
434 1 0.392895 0.178515 0.166393 55.845 8.5072e-08 
435 1 0.428569 0.178574 0.124488 55.845 6.18098e-08 
436 1 0.428613 0.214249 0.166421 55.845 3.71104e-07 
437 1 0.464274 0.214244 0.12456 55.845 5.04363e-07 
605 1 0.428571 0.142857 0 55.845 2.23604e-07 
446 1 0.42861 0.142839 0.166358 55.845 -3.41561e-08 
447 1 0.464299 0.142872 0.124503 55.845 7.19055e-08 
448 1 0.464267 0.178451 0.166428 55.845 1.86215e-07 
523 1 0.392857 0.214286 0.0416667 55.845 -3.74616e-07 
524 1 0.392868 0.249959 0.0831057 55.845 1.96981e-08 
525 1 0.428571 0.25 0.0416667 55.845 -2.32269e-08 
535 1 0.392857 0.142857 0.0416667 55.845 -5.5498e-07 
536 1 0.39287 0.178537 0.0830517 55.845 -1.46639e-07 
537 1 0.428571 0.178571 0.0416667 55.845 -3.18239e-07 
538 1 0.428538 0.21429 0.0831609 55.845 1.62171e-07 
539 1 0.464286 0.214286 0.0416667 55.845 1.17677e-07 
548 1 0.428599 0.14279 0.0830955 55.845 -3.65181e-07 
549 1 0.464286 0.142857 0.0416667 55.845 -2.0514e-07 
550 1 0.464251 0.178542 0.0831185 55.845 -4.29966e-08 
593 1 0.392857 0.25 0 55.845 2.5219e-07 
599 1 0.392857 0.178571 0 55.845 1.60372e-07 
600 1 0.428571 0.214286 0 55.845 4.84782e-07 
3 1 -3.04604e-05 0.107145 0.458433 55.845 1.78204e-07 
7 1 5.39375e-05 0.0356507 0.458522 55.845 -4.44541e-08 
8 1 0.0358102 0.0714423 0.458507 55.845 -9.8327e-08 
9 1 0.0714298 0.107166 0.458542 55.845 1.46059e-07 
13 1 0.0357988 -9.96207e-05 0.458471 55.845 6.3879e-08 
14 1 0.0715611 0.035708 0.458614 55.845 -2.82799e-07 
15 1 0.107229 0.0713822 0.458531 55.845 -1.17886e-07 
20 1 0.107205 2.1552e-06 0.458501 55.845 5.31735e-08 
55 1 -1.05036e-05 0.107226 0.375267 55.845 3.74626e-07 
63 1 -1.20404e-06 0.0356957 0.375391 55.845 5.25851e-07 
64 1 3.23834e-05 0.071402 0.41693 55.845 -8.26441e-07 
65 1 0.0357895 0.0713734 0.375327 55.845 1.72881e-07 
66 1 0.0356971 0.107187 0.416965 55.845 -6.20555e-07 
67 1 0.0714578 0.107117 0.375271 55.845 3.03354e-07 
74 1 8.45461e-05 -2.47828e-05 0.416954 55.845 -6.01186e-07 
75 1 0.0357518 -5.78767e-05 0.375221 55.845 3.64805e-07 
76 1 0.0357763 0.0356518 0.416909 55.845 -9.62434e-07 
77 1 0.0714438 0.0357006 0.375399 55.845 1.56143e-07 
78 1 0.0715327 0.0714635 0.417078 55.845 -6.08875e-07 
79 1 0.107198 0.071444 0.375384 55.845 1.48572e-07 
80 1 0.107239 0.107176 0.416907 55.845 -2.476e-07 
88 1 0.0714693 -2.41795e-05 0.416781 55.845 -5.69311e-07 
89 1 0.107158 -1.88861e-05 0.375426 55.845 5.35702e-07 
90 1 0.107181 0.0357561 0.41678 55.845 -6.07474e-07 
157 1 -7.47202e-05 0.107181 0.291425 55.845 4.2122e-07 
165 1 -2.44357e-05 0.0357945 0.291485 55.845 4.59278e-07 
166 1 1.47828e-05 0.0714458 0.333312 55.845 -3.91102e-07 
167 1 0.0357375 0.0714847 0.29151 55.845 1.6455e-07 
168 1 0.0356994 0.107154 0.333482 55.845 1.22431e-07 
169 1 0.0714346 0.107136 0.291466 55.845 5.98609e-08 
176 1 1.36292e-05 7.59463e-05 0.333362 55.845 -2.33116e-07 
177 1 0.0357002 3.10324e-05 0.291343 55.845 4.08774e-07 
178 1 0.0357051 0.035736 0.333273 55.845 -1.2254e-07 
179 1 0.0714321 0.0356939 0.291451 55.845 3.67679e-07 
180 1 0.0714519 0.0714493 0.333503 55.845 2.11543e-07 
181 1 0.107143 0.0714015 0.291624 55.845 4.35748e-08 
182 1 0.107193 0.107162 0.333402 55.845 2.57272e-07 
190 1 0.0714875 -1.26732e-05 0.333214 55.845 1.44295e-07 
191 1 0.107192 -2.75676e-05 0.291439 55.845 3.55032e-07 
192 1 0.107178 0.0356358 0.333379 55.845 1.20169e-07 
268 1 -4.40127e-05 0.071459 0.250093 55.845 -4.44667e-07 
270 1 0.0356834 0.10713 0.250161 55.845 -8.79106e-08 
278 1 -3.19271e-05 2.25187e-05 0.250034 55.845 -5.3495e-07 
280 1 0.0356595 0.0357351 0.250102 55.845 -3.72905e-07 
282 1 0.0713904 0.0713878 0.250189 55.845 -2.46406e-07 
284 1 0.107064 0.107094 0.25006 55.845 -1.80724e-07 
292 1 0.0714803 -3.25173e-05 0.250104 55.845 -2.53006e-07 
294 1 0.107227 0.0356713 0.250024 55.845 -3.0947e-07 
16 1 0.142888 0.107128 0.458533 55.845 1.26244e-07 
21 1 0.142925 0.0357341 0.458509 55.845 -2.75011e-08 
22 1 0.178565 0.0714492 0.458528 55.845 -8.63987e-09 
23 1 0.214267 0.107214 0.45843 55.845 -1.34869e-07 
27 1 0.178641 -1.28015e-05 0.458438 55.845 1.35277e-07 
28 1 0.214342 0.0357113 0.458494 55.845 2.07174e-08 
29 1 0.249999 0.0714367 0.458396 55.845 5.05532e-08 
81 1 0.142898 0.107163 0.375349 55.845 2.52829e-07 
91 1 0.142862 0.0357017 0.375274 55.845 3.09801e-07 
92 1 0.142886 0.071403 0.416767 55.845 -3.52138e-07 
93 1 0.178592 0.0713858 0.375262 55.845 1.75848e-07 
94 1 0.17861 0.107161 0.416784 55.845 -4.82278e-07 
95 1 0.214264 0.107128 0.375321 55.845 -2.19605e-07 
102 1 0.14292 2.56064e-05 0.416846 55.845 -4.73428e-07 
103 1 0.178573 6.88833e-06 0.375279 55.845 6.54619e-07 
104 1 0.178597 0.0357247 0.416907 55.845 -6.52288e-07 
105 1 0.214317 0.0357074 0.375316 55.845 3.0143e-07 
106 1 0.214282 0.0714405 0.416726 55.845 -6.70158e-07 
107 1 0.249989 0.0714718 0.375301 55.845 1.0273e-07 
108 1 0.25005 0.107183 0.416778 55.845 -5.49541e-07 
118 1 0.214335 5.88313e-06 0.416867 55.845 -7.12989e-07 
120 1 0.250036 0.0357284 0.41674 55.845 -6.19682e-07 
183 1 0.142825 0.107077 0.291512 55.845 1.41829e-07 
193 1 0.142928 0.0356813 0.291463 55.845 2.44435e-07 
194 1 0.142904 0.0713727 0.333302 55.845 1.9793e-08 
195 1 0.178612 0.0713544 0.291384 55.845 1.75771e-07 
196 1 0.178596 0.107095 0.333325 55.845 6.5221e-08 
197 1 0.214293 0.107162 0.2915 55.845 3.84113e-07 
204 1 0.142846 3.75733e-05 0.333267 55.845 6.2153e-08 
205 1 0.17864 4.66944e-05 0.29146 55.845 3.36274e-07 
206 1 0.178649 0.0357256 0.333312 55.845 -5.24393e-08 
207 1 0.214353 0.0356562 0.291327 55.845 2.1359e-07 
208 1 0.214338 0.0713694 0.33326 55.845 -4.24855e-08 
209 1 0.249995 0.0714334 0.2913 55.845 9.59217e-08 
210 1 0.250056 0.107205 0.33332 55.845 1.09107e-07 
220 1 0.214308 9.71891e-06 0.333362 55.845 -3.51969e-08 
222 1 0.249943 0.0356717 0.33326 55.845 4.04893e-08 
296 1 0.142871 0.0713821 0.250195 55.845 -2.85607e-07 
298 1 0.178551 0.107149 0.25001 55.845 -1.51228e-07 
306 1 0.142935 -5.14829e-05 0.250002 55.845 -1.57108e-07 
308 1 0.178592 0.0357249 0.249992 55.845 -1.75132e-07 
310 1 0.214256 0.0714857 0.249896 55.845 -2.59935e-07 
312 1 0.25 0.107148 0.249915 55.845 4.34916e-08 
322 1 0.214295 -2.26337e-05 0.250063 55.845 -1.84531e-08 
324 1 0.249995 0.0357665 0.249882 55.845 -2.80984e-07 
30 1 0.285724 0.10714 0.458369 55.845 -2.46976e-08 
35 1 0.250049 4.34396e-05 0.458365 55.845 2.01341e-09 
36 1 0.285717 0.0357196 0.458373 55.845 9.90755e-08 
37 1 0.321382 0.0714383 0.458476 55.845 7.45658e-08 
38 1 0.357113 0.107151 0.458384 55.845 -4.02542e-07 
42 1 0.321345 -4.09767e-05 0.458477 55.845 -1.73379e-08 
43 1 0.357015 0.0357007 0.458556 55.845 -9.72983e-08 
109 1 0.285722 0.107127 0.375329 55.845 -8.36532e-08 
119 1 0.25001 -2.20172e-05 0.375265 55.845 2.76713e-07 
121 1 0.285671 0.0357455 0.375204 55.845 1.89735e-07 
122 1 0.285689 0.0714619 0.416905 55.845 -1.97954e-07 
123 1 0.321345 0.0714932 0.375278 55.845 3.73708e-08 
124 1 0.321425 0.107157 0.416766 55.845 -3.69392e-07 
125 1 0.357111 0.107196 0.375308 55.845 -2.04755e-07 
133 1 0.321417 -3.37824e-05 0.375245 55.845 2.55469e-07 
134 1 0.321391 0.0357169 0.416675 55.845 -4.8112e-07 
135 1 0.357192 0.0357356 0.375376 55.845 -1.27505e-07 
136 1 0.35711 0.0713812 0.416859 55.845 -4.61108e-07 
211 1 0.285684 0.107166 0.291346 55.845 1.68662e-08 
221 1 0.250094 1.82858e-05 0.291364 55.845 3.21529e-07 
223 1 0.285722 0.0357117 0.291498 55.845 7.37017e-08 
224 1 0.285751 0.0715056 0.333289 55.845 3.70727e-07 
225 1 0.321429 0.07142 0.291412 55.845 -2.18528e-07 
226 1 0.321382 0.107165 0.333213 55.845 4.40536e-07 
227 1 0.357096 0.107159 0.291397 55.845 -1.00069e-07 
235 1 0.321448 -5.57753e-06 0.291432 55.845 -1.34582e-09 
236 1 0.321435 0.0357582 0.333382 55.845 5.52988e-07 
237 1 0.357166 0.0357315 0.29147 55.845 -2.96439e-07 
238 1 0.357087 0.0714607 0.333331 55.845 6.47151e-07 
326 1 0.28578 0.0713628 0.24984 55.845 -3.11739e-07 
328 1 0.321386 0.107107 0.249899 55.845 2.71063e-07 
338 1 0.32146 0.0356811 0.250092 55.845 1.41886e-07 
340 1 0.357169 0.0714718 0.250001 55.845 2.09141e-07 
44 1 0.392783 0.0714512 0.458482 55.845 -5.3953e-07 
45 1 0.428535 0.107175 0.458449 55.845 -9.47948e-08 
47 1 0.392917 -4.2535e-05 0.458442 55.845 -4.53316e-09 
48 1 0.428533 0.0356848 0.458482 55.845 -3.71353e-07 
49 1 0.464268 0.0715086 0.458482 55.845 -2.15547e-07 
50 1 0.464295 5.38725e-05 0.458399 55.845 7.88302e-08 
137 1 0.392797 0.0714731 0.375452 55.845 -3.12743e-07 
138 1 0.392781 0.107202 0.41682 55.845 -1.18786e-07 
139 1 0.428479 0.107116 0.375331 55.845 -3.65572e-09 
144 1 0.3929 -1.27609e-05 0.375425 55.845 -1.19776e-07 
145 1 0.392797 0.0356663 0.41696 55.845 -6.52043e-07 
146 1 0.428558 0.0357596 0.375436 55.845 -4.01086e-07 
147 1 0.428465 0.0715141 0.416966 55.845 -5.21432e-07 
148 1 0.464231 0.0713796 0.375374 55.845 -4.21995e-07 
149 1 0.464236 0.107251 0.416757 55.845 -1.14737e-07 
150 1 0.428581 -2.081e-05 0.416851 55.845 -2.03186e-07 
151 1 0.464269 -9.48944e-05 0.37544 55.845 -2.25148e-07 
152 1 0.464301 0.0357489 0.41684 55.845 -3.92491e-07 
239 1 0.39285 0.0713816 0.291464 55.845 -2.48441e-07 
240 1 0.392801 0.107135 0.333272 55.845 7.96478e-07 
241 1 0.428575 0.107107 0.291341 55.845 -1.70805e-07 
246 1 0.392854 -2.05923e-05 0.291427 55.845 -9.08772e-08 
247 1 0.392896 0.0357473 0.33339 55.845 5.1286e-07 
248 1 0.428571 0.0356861 0.291282 55.845 -2.45409e-07 
249 1 0.428537 0.0714094 0.333305 55.845 5.67312e-07 
250 1 0.464306 0.071408 0.291432 55.845 -2.01808e-07 
251 1 0.464241 0.107185 0.333349 55.845 4.8704e-07 
252 1 0.428577 2.66123e-05 0.333374 55.845 5.31947e-07 
253 1 0.464305 -0.000113541 0.2913 55.845 -2.35994e-07 
254 1 0.46428 0.0356603 0.333347 55.845 4.68617e-07 
342 1 0.392894 0.107111 0.249948 55.845 -1.15481e-07 
349 1 0.3928 0.0356474 0.249955 55.845 1.3817e-07 
351 1 0.428482 0.0713932 0.250105 55.845 2.85911e-08 
353 1 0.464233 0.107162 0.25003 55.845 3.99043e-08 
354 1 0.428531 -6.9556e-05 0.250086 55.845 2.09823e-07 
356 1 0.464283 0.0357142 0.24998 55.845 1.91533e-07 
1 1 -1.29568e-05 0.178618 0.458443 55.845 3.44416e-08 
2 1 0.0356695 0.214288 0.458491 55.845 1.07228e-07 
4 1 0.0356995 0.142851 0.458501 55.845 3.24893e-07 
5 1 0.0713874 0.178504 0.458342 55.845 2.44544e-07 
6 1 0.107095 0.214302 0.458371 55.845 -5.42936e-07 
10 1 0.107113 0.142938 0.458431 55.845 2.6857e-07 
51 1 5.52998e-05 0.178661 0.375394 55.845 2.29509e-07 
52 1 -4.10034e-05 0.214302 0.41685 55.845 -6.24778e-07 
53 1 0.0357013 0.214349 0.375299 55.845 1.66131e-07 
54 1 0.0357703 0.249991 0.416818 55.845 -3.86126e-07 
56 1 6.443e-06 0.142828 0.416852 55.845 -8.21755e-07 
57 1 0.0357058 0.142817 0.375356 55.845 4.51231e-07 
58 1 0.0357426 0.178564 0.416779 55.845 -3.78616e-07 
59 1 0.0714701 0.17848 0.375249 55.845 1.58566e-07 
60 1 0.0713063 0.214178 0.416839 55.845 -5.15175e-07 
61 1 0.10714 0.214368 0.375322 55.845 -3.66616e-07 
62 1 0.107212 0.250006 0.416795 55.845 -9.20979e-07 
68 1 0.0714389 0.142822 0.416787 55.845 -1.64994e-07 
69 1 0.107174 0.142937 0.375274 55.845 3.48729e-07 
70 1 0.10715 0.178659 0.416872 55.845 -2.14732e-07 
153 1 3.67024e-05 0.178588 0.291471 55.845 3.48763e-08 
154 1 -3.78929e-05 0.214289 0.333229 55.845 2.91149e-08 
155 1 0.0356705 0.214287 0.291364 55.845 -2.8206e-08 
156 1 0.0356946 0.250001 0.333288 55.845 2.52123e-07 
158 1 -7.11403e-05 0.142871 0.333285 55.845 -9.41794e-08 
159 1 0.0357134 0.142807 0.291517 55.845 9.52844e-08 
160 1 0.0357345 0.178547 0.333285 55.845 2.37274e-07 
161 1 0.0714201 0.178581 0.291351 55.845 -1.70207e-07 
162 1 0.0714366 0.214289 0.333322 55.845 3.42532e-07 
163 1 0.107197 0.214307 0.291311 55.845 -4.94194e-08 
164 1 0.1071 0.249962 0.333279 55.845 1.34999e-07 
170 1 0.0714272 0.142847 0.333298 55.845 4.13562e-07 
171 1 0.107133 0.142883 0.291428 55.845 -5.59447e-08 
172 1 0.107177 0.178596 0.333298 55.845 2.1726e-07 
256 1 -4.42164e-06 0.214301 0.249923 55.845 -3.17642e-07 
258 1 0.0357007 0.249983 0.249941 55.845 -2.11688e-07 
260 1 -3.40175e-05 0.142847 0.250004 55.845 -8.08864e-08 
262 1 0.0356364 0.178524 0.250021 55.845 -1.00303e-07 
264 1 0.0714073 0.214362 0.249984 55.845 -9.54165e-08 
266 1 0.107158 0.250069 0.250014 55.845 3.06039e-07 
272 1 0.0714041 0.142846 0.249994 55.845 1.66987e-08 
274 1 0.107178 0.178561 0.249996 55.845 -1.50161e-07 
11 1 0.142849 0.178654 0.45847 55.845 -2.74653e-07 
12 1 0.17862 0.214334 0.458429 55.845 -4.09843e-08 
17 1 0.178565 0.142937 0.45849 55.845 -1.69103e-07 
18 1 0.21429 0.178561 0.458497 55.845 -2.59549e-07 
19 1 0.250012 0.21429 0.458394 55.845 -6.19323e-09 
24 1 0.250027 0.142891 0.458472 55.845 -4.13515e-07 
71 1 0.142854 0.17866 0.375307 55.845 -1.73773e-07 
72 1 0.142925 0.214369 0.416822 55.845 -6.26071e-07 
73 1 0.178514 0.214292 0.375361 55.845 -4.57177e-08 
82 1 0.142906 0.142861 0.416819 55.845 -1.24227e-07 
83 1 0.1786 0.142896 0.375353 55.845 3.09148e-08 
84 1 0.178607 0.178571 0.416755 55.845 -3.91124e-07 
85 1 0.214288 0.178538 0.375299 55.845 -2.85835e-09 
86 1 0.214299 0.214255 0.416758 55.845 -9.19076e-08 
87 1 0.250003 0.214258 0.375344 55.845 -1.447e-07 
96 1 0.214282 0.142865 0.416862 55.845 -5.28549e-07 
97 1 0.24997 0.142825 0.375297 55.845 -2.0334e-07 
98 1 0.249938 0.178524 0.416905 55.845 -3.75477e-07 
173 1 0.142894 0.178504 0.29134 55.845 -9.98171e-08 
174 1 0.142849 0.214284 0.333252 55.845 8.88017e-08 
175 1 0.17865 0.214231 0.291395 55.845 1.27347e-07 
184 1 0.142898 0.142909 0.333333 55.845 2.04954e-07 
185 1 0.178573 0.142852 0.291492 55.845 2.51951e-07 
186 1 0.178553 0.178591 0.33335 55.845 2.46899e-07 
187 1 0.214295 0.178662 0.2914 55.845 1.56703e-07 
188 1 0.214265 0.214287 0.333308 55.845 4.36523e-07 
189 1 0.249995 0.214268 0.291322 55.845 -7.97238e-08 
198 1 0.214304 0.142919 0.333281 55.845 7.21303e-08 
199 1 0.249993 0.142852 0.291344 55.845 1.61215e-07 
200 1 0.249933 0.178593 0.333233 55.845 2.98993e-07 
276 1 0.14292 0.214278 0.250038 55.845 -6.76267e-08 
286 1 0.142835 0.142861 0.250002 55.845 -1.11841e-07 
288 1 0.178584 0.178559 0.250076 55.845 -1.99522e-07 
290 1 0.21431 0.214294 0.249881 55.845 -1.62524e-07 
300 1 0.214253 0.1428 0.250042 55.845 1.51101e-07 
302 1 0.249936 0.178576 0.249984 55.845 -1.51849e-07 
25 1 0.285664 0.178607 0.458416 55.845 -5.70063e-07 
26 1 0.321409 0.214304 0.458401 55.845 -2.50435e-07 
31 1 0.321416 0.142892 0.458358 55.845 -3.99363e-07 
32 1 0.357191 0.178593 0.458348 55.845 -1.84772e-07 
99 1 0.285695 0.178571 0.375343 55.845 -3.7229e-07 
100 1 0.285677 0.21433 0.416892 55.845 -4.05612e-07 
101 1 0.321368 0.214345 0.375369 55.845 -3.2971e-07 
110 1 0.285689 0.142895 0.416872 55.845 -4.91495e-07 
111 1 0.32147 0.142857 0.375228 55.845 -2.14325e-07 
112 1 0.32141 0.178593 0.416841 55.845 -3.48084e-07 
113 1 0.357118 0.178593 0.375309 55.845 -1.66886e-07 
114 1 0.357205 0.214279 0.416829 55.845 -2.75158e-07 
126 1 0.357146 0.142881 0.416872 55.845 -1.39745e-07 
201 1 0.285677 0.178586 0.291347 55.845 -7.87681e-08 
202 1 0.285671 0.214283 0.333241 55.845 1.9108e-07 
203 1 0.3214 0.214328 0.291448 55.845 -9.06204e-08 
212 1 0.285686 0.142908 0.333295 55.845 3.23132e-07 
213 1 0.321409 0.142863 0.291367 55.845 -2.14054e-08 
214 1 0.321411 0.178557 0.333266 55.845 4.5157e-07 
215 1 0.357196 0.178605 0.291391 55.845 1.16342e-07 