ITEM: TIMESTEP
9200
ITEM: NUMBER OF ATOMS
5880
ITEM: BOX BOUNDS pp pp ff
-27.9399 27.9399
-27.9399 27.9399
0 34.092
ITEM: ATOMS id type xs ys zs mass q 
259 1 -8.67863e-06 0.107322 0.210437 55.845 2.48863e-07 
267 1 0.000119661 0.0357089 0.210563 55.845 3.66339e-07 
269 1 0.0357267 0.0715285 0.210552 55.845 4.19814e-07 
271 1 0.0714872 0.107121 0.210494 55.845 4.83947e-07 
279 1 0.0356948 4.27317e-05 0.210587 55.845 5.48065e-07 
281 1 0.0715277 0.0358414 0.210518 55.845 3.83748e-07 
283 1 0.107255 0.0715327 0.210458 55.845 4.28523e-07 
293 1 0.107222 0.000141149 0.210367 55.845 2.30243e-07 
361 1 -2.69188e-05 0.107203 0.126911 55.845 -5.65875e-07 
369 1 3.48088e-05 0.0357702 0.127007 55.845 -6.32896e-07 
370 1 9.73228e-06 0.0714949 0.168694 55.845 -7.9466e-08 
371 1 0.0356939 0.0714102 0.127076 55.845 -5.56356e-07 
372 1 0.0356323 0.107103 0.1685 55.845 -1.81454e-07 
373 1 0.0713813 0.107124 0.126992 55.845 -4.74821e-07 
380 1 -1.22131e-05 7.79177e-06 0.168449 55.845 -1.09031e-07 
381 1 0.0355805 0.000169211 0.127032 55.845 -7.28353e-07 
382 1 0.0357322 0.035736 0.16878 55.845 -1.2778e-07 
383 1 0.0713697 0.035696 0.127225 55.845 -4.5335e-07 
384 1 0.0714117 0.0715296 0.168657 55.845 -2.36873e-07 
385 1 0.106998 0.0714313 0.127027 55.845 -4.14411e-07 
386 1 0.107221 0.10707 0.168592 55.845 -2.43399e-07 
394 1 0.071399 7.79954e-05 0.168543 55.845 -4.95657e-08 
395 1 0.107039 -5.36681e-05 0.126765 55.845 -3.78859e-07 
396 1 0.107172 0.0358092 0.16863 55.845 -1.90207e-07 
463 1 0 0.107143 0.0416667 55.845 -3.84674e-07 
471 1 0 0.0357143 0.0416667 55.845 -3.53656e-07 
472 1 0.000138341 0.0715142 0.0854484 55.845 7.19651e-07 
473 1 0.0357143 0.0714286 0.0416667 55.845 -3.69889e-07 
474 1 0.0358001 0.107105 0.0852409 55.845 1.01937e-06 
475 1 0.0714286 0.107143 0.0416667 55.845 -2.98611e-07 
482 1 -4.24203e-05 3.54256e-05 0.085428 55.845 7.33147e-07 
483 1 0.0357143 0 0.0416667 55.845 -3.24916e-07 
484 1 0.0357835 0.0357978 0.0853557 55.845 6.43643e-07 
485 1 0.0714286 0.0357143 0.0416667 55.845 -3.891e-07 
486 1 0.0714633 0.071304 0.0852705 55.845 7.6425e-07 
487 1 0.107143 0.0714286 0.0416667 55.845 -2.83478e-07 
488 1 0.107077 0.107107 0.085461 55.845 7.8356e-07 
496 1 0.0713731 1.02603e-05 0.0853541 55.845 6.62264e-07 
497 1 0.107143 0 0.0416667 55.845 -3.53508e-07 
498 1 0.107098 0.0356085 0.0853296 55.845 7.5638e-07 
567 1 0 0.0714286 0 55.845 -3.73893e-07 
568 1 0.0357143 0.107143 0 55.845 -2.94891e-07 
572 1 0 0 0 55.845 -1.58562e-07 
573 1 0.0357143 0.0357143 0 55.845 -3.38421e-07 
574 1 0.0714286 0.0714286 0 55.845 -1.68821e-07 
575 1 0.107143 0.107143 0 55.845 -2.65682e-07 
579 1 0.0714286 0 0 55.845 -2.79294e-07 
580 1 0.107143 0.0357143 0 55.845 -1.80026e-07 
285 1 0.142967 0.107192 0.210271 55.845 5.63403e-07 
295 1 0.143093 0.0357298 0.210308 55.845 2.19152e-07 
297 1 0.17854 0.0714427 0.210283 55.845 4.62115e-07 
299 1 0.214267 0.107261 0.210289 55.845 4.20583e-07 
307 1 0.178589 5.83195e-05 0.210358 55.845 3.25844e-07 
309 1 0.214296 0.0357426 0.210241 55.845 3.98416e-07 
311 1 0.249929 0.0715139 0.210563 55.845 3.79023e-07 
387 1 0.142843 0.107142 0.12675 55.845 -4.25968e-07 
397 1 0.142879 0.0356944 0.126962 55.845 -3.53032e-07 
398 1 0.14284 0.0714705 0.168412 55.845 -3.11206e-07 
399 1 0.178565 0.0715026 0.126919 55.845 -5.28811e-07 
400 1 0.178523 0.107237 0.168043 55.845 -2.84186e-07 
401 1 0.214233 0.107314 0.126941 55.845 -4.27307e-07 
408 1 0.14285 -0.000123553 0.168578 55.845 -1.07034e-07 
409 1 0.178551 3.83246e-05 0.126771 55.845 -4.74184e-07 
410 1 0.17862 0.035894 0.16841 55.845 -2.34546e-07 
411 1 0.214318 0.0356389 0.12677 55.845 -5.64881e-07 
412 1 0.21442 0.0714646 0.168573 55.845 -3.31578e-07 
413 1 0.250098 0.0714053 0.127026 55.845 -5.35007e-07 
414 1 0.25005 0.107243 0.168571 55.845 -2.59376e-07 
424 1 0.214307 -6.04518e-05 0.168401 55.845 -1.68557e-07 
426 1 0.250088 0.0357156 0.168624 55.845 -2.1911e-07 
489 1 0.142857 0.107143 0.0416667 55.845 -4.38562e-07 
499 1 0.142857 0.0357143 0.0416667 55.845 -2.41959e-07 
500 1 0.142832 0.0713592 0.0853665 55.845 7.62873e-07 
501 1 0.178571 0.0714286 0.0416667 55.845 -3.58233e-07 
502 1 0.178585 0.107169 0.0852079 55.845 6.0334e-07 
503 1 0.214286 0.107143 0.0416667 55.845 -3.15369e-07 
510 1 0.142901 5.92647e-06 0.0852334 55.845 8.96403e-07 
511 1 0.178571 0 0.0416667 55.845 -3.01813e-07 
512 1 0.178576 0.03578 0.0853417 55.845 8.48759e-07 
513 1 0.214286 0.0357143 0.0416667 55.845 -4.79004e-07 
514 1 0.214264 0.0715344 0.0853577 55.845 7.20668e-07 
515 1 0.25 0.0714286 0.0416667 55.845 -4.20147e-07 
516 1 0.250045 0.107174 0.0853552 55.845 7.18612e-07 
526 1 0.214331 -3.36228e-05 0.0851222 55.845 8.81556e-07 
528 1 0.249999 0.0356959 0.0852136 55.845 7.20941e-07 
581 1 0.142857 0.0714286 0 55.845 -5.67019e-08 
582 1 0.178571 0.107143 0 55.845 -2.35907e-07 
586 1 0.142857 0 0 55.845 -1.94772e-07 
587 1 0.178571 0.0357143 0 55.845 -2.39416e-07 
588 1 0.214286 0.0714286 0 55.845 -1.55952e-07 
589 1 0.25 0.107143 0 55.845 -2.44552e-08 
594 1 0.214286 0 0 55.845 -4.24708e-07 
595 1 0.25 0.0357143 0 55.845 -3.85449e-07 
313 1 0.28582 0.107217 0.210379 55.845 4.19092e-07 
323 1 0.250013 5.91534e-05 0.210563 55.845 2.76358e-07 
325 1 0.285784 0.035758 0.210683 55.845 3.61655e-07 
327 1 0.321533 0.0714378 0.210373 55.845 5.12225e-07 
329 1 0.357213 0.10705 0.210215 55.845 4.624e-07 
337 1 0.321456 9.52317e-05 0.21066 55.845 3.77366e-07 
339 1 0.357182 0.0357914 0.210537 55.845 4.74543e-07 
415 1 0.28574 0.107151 0.126909 55.845 -2.91117e-07 
425 1 0.250028 8.58228e-05 0.12705 55.845 -5.83675e-07 
427 1 0.28575 0.0355967 0.127317 55.845 -4.17878e-07 
428 1 0.2857 0.0714076 0.168598 55.845 -2.70454e-07 
429 1 0.321503 0.0714508 0.12717 55.845 -3.76041e-07 
430 1 0.321507 0.107221 0.168461 55.845 -3.66571e-07 
431 1 0.357224 0.107165 0.126754 55.845 -2.34562e-07 
439 1 0.321541 -3.72256e-06 0.127263 55.845 -4.6488e-07 
440 1 0.321484 0.0356358 0.168773 55.845 -2.828e-07 
441 1 0.35712 0.0356457 0.127112 55.845 -4.8253e-07 
442 1 0.357218 0.0713636 0.168495 55.845 -3.5019e-07 
517 1 0.285714 0.107143 0.0416667 55.845 -2.80063e-07 
527 1 0.25 0 0.0416667 55.845 -4.73493e-07 
529 1 0.285714 0.0357143 0.0416667 55.845 -4.5612e-07 
530 1 0.285655 0.0713 0.0853187 55.845 6.07093e-07 
531 1 0.321429 0.0714286 0.0416667 55.845 -3.26473e-07 
532 1 0.321442 0.107068 0.0852777 55.845 6.43816e-07 
533 1 0.357143 0.107143 0.0416667 55.845 -4.33458e-07 
603 1 0.357143 0.0714286 0 55.845 -1.22085e-07 
541 1 0.321429 0 0.0416667 55.845 -3.34184e-07 
542 1 0.321326 0.0356259 0.0854794 55.845 7.69474e-07 
543 1 0.357143 0.0357143 0.0416667 55.845 -2.35772e-07 
544 1 0.35722 0.0713549 0.0852837 55.845 7.97653e-07 
602 1 0.321429 0.0357143 0 55.845 -1.39927e-07 
596 1 0.285714 0.0714286 0 55.845 -1.19975e-07 
597 1 0.321429 0.107143 0 55.845 -1.48997e-07 
612 1 0.464286 0.0357143 0 55.845 -1.66063e-07 
611 1 0.428571 0 0 55.845 -1.47151e-07 
610 1 0.464286 0.107143 0 55.845 -2.08641e-07 
609 1 0.428571 0.0714286 0 55.845 -1.86191e-07 
608 1 0.392857 0.0357143 0 55.845 -1.91585e-07 
341 1 0.392789 0.0713679 0.210198 55.845 4.07402e-07 
343 1 0.4285 0.107189 0.210321 55.845 1.28973e-07 
348 1 0.392899 2.43753e-05 0.210414 55.845 6.13364e-07 
350 1 0.428569 0.0357369 0.210348 55.845 3.01708e-07 
352 1 0.464179 0.0713958 0.210233 55.845 1.21776e-07 
355 1 0.464249 -6.69272e-05 0.210517 55.845 2.90124e-07 
443 1 0.392842 0.0715149 0.126707 55.845 -3.94441e-07 
444 1 0.39283 0.1072 0.168526 55.845 -2.4446e-07 
445 1 0.428549 0.107151 0.12684 55.845 -3.67186e-07 
604 1 0.392857 0.107143 0 55.845 -1.98907e-07 
450 1 0.392687 -1.90526e-05 0.127131 55.845 -7.32965e-07 
451 1 0.392899 0.0356709 0.168455 55.845 -2.72201e-07 
452 1 0.428534 0.0357606 0.12682 55.845 -6.83566e-07 
453 1 0.428593 0.0714935 0.16837 55.845 -3.17018e-08 
454 1 0.464379 0.0714881 0.126879 55.845 -4.82897e-07 
455 1 0.464311 0.107173 0.168654 55.845 -1.15088e-08 
456 1 0.428521 5.75555e-05 0.168452 55.845 -1.60333e-07 
457 1 0.464329 1.03435e-05 0.127062 55.845 -8.70692e-07 
458 1 0.464268 0.0357335 0.168523 55.845 5.40371e-08 
545 1 0.392857 0.0714286 0.0416667 55.845 -3.87283e-07 
546 1 0.392856 0.107192 0.0851333 55.845 7.50619e-07 
547 1 0.428571 0.107143 0.0416667 55.845 -3.52866e-07 
552 1 0.392857 0 0.0416667 55.845 -3.37693e-07 
553 1 0.392899 0.0356365 0.0852631 55.845 8.93297e-07 
554 1 0.428571 0.0357143 0.0416667 55.845 -4.16426e-07 
555 1 0.428632 0.07145 0.0852459 55.845 8.1954e-07 
556 1 0.464286 0.0714286 0.0416667 55.845 -4.656e-07 
557 1 0.46431 0.107169 0.0851828 55.845 9.85284e-07 
558 1 0.428507 -2.91515e-05 0.0852981 55.845 7.80967e-07 
559 1 0.464286 0 0.0416667 55.845 -4.86806e-07 
560 1 0.464157 0.035752 0.0852823 55.845 8.56101e-07 
255 1 -6.96888e-06 0.178711 0.210672 55.845 -3.99172e-08 
257 1 0.0356297 0.214309 0.2106 55.845 2.646e-07 
261 1 0.0357648 0.14294 0.210593 55.845 2.10287e-07 
263 1 0.0714931 0.1785 0.210564 55.845 4.26622e-07 
265 1 0.107105 0.214427 0.210431 55.845 6.17045e-07 
273 1 0.107122 0.142752 0.210479 55.845 5.70969e-07 
357 1 -3.35955e-05 0.178588 0.127015 55.845 -3.64869e-07 
358 1 -8.17106e-05 0.214319 0.168699 55.845 9.93321e-08 
359 1 0.0356448 0.214213 0.127121 55.845 -4.09706e-07 
360 1 0.0357291 0.250078 0.16852 55.845 -1.04166e-07 
362 1 -9.13583e-05 0.14301 0.168638 55.845 -7.30378e-08 
363 1 0.0356866 0.142815 0.127274 55.845 -3.95625e-07 
364 1 0.0357469 0.178593 0.168734 55.845 8.96961e-09 
365 1 0.071391 0.178492 0.127196 55.845 -5.17947e-07 
366 1 0.0713766 0.214418 0.168663 55.845 -1.48241e-07 
367 1 0.107119 0.214299 0.127158 55.845 -5.35175e-07 
368 1 0.107265 0.250027 0.168612 55.845 -1.86267e-07 
374 1 0.071414 0.142655 0.168463 55.845 -3.07466e-07 
375 1 0.106971 0.14287 0.126817 55.845 -5.53764e-07 
376 1 0.107068 0.178522 0.168627 55.845 -1.8416e-07 
459 1 0 0.178571 0.0416667 55.845 -3.28534e-07 
460 1 2.20753e-05 0.214341 0.0854173 55.845 8.44249e-07 
461 1 0.0357143 0.214286 0.0416667 55.845 -4.26431e-07 
462 1 0.0356666 0.25007 0.0854172 55.845 7.56416e-07 
464 1 6.15184e-05 0.142827 0.0853827 55.845 9.51839e-07 
465 1 0.0357143 0.142857 0.0416667 55.845 -1.74501e-07 
466 1 0.0357327 0.178537 0.085527 55.845 1.02227e-06 
467 1 0.0714286 0.178571 0.0416667 55.845 -2.46917e-07 
468 1 0.0713475 0.214301 0.0854272 55.845 7.24613e-07 
469 1 0.107143 0.214286 0.0416667 55.845 -3.18519e-07 
470 1 0.107227 0.249937 0.0852073 55.845 9.06472e-07 
476 1 0.0714384 0.142908 0.0851666 55.845 9.89424e-07 
477 1 0.107143 0.142857 0.0416667 55.845 -4.27686e-07 
478 1 0.107144 0.178741 0.0853801 55.845 7.18527e-07 
561 1 0 0.214286 0 55.845 -2.51262e-07 
562 1 0.0357143 0.25 0 55.845 -4.10396e-07 
563 1 0 0.142857 0 55.845 -2.94668e-07 
564 1 0.0357143 0.178571 0 55.845 -2.79714e-07 
565 1 0.0714286 0.214286 0 55.845 -2.78072e-07 
566 1 0.107143 0.25 0 55.845 -9.38129e-08 
569 1 0.0714286 0.142857 0 55.845 -2.01439e-07 
570 1 0.107143 0.178571 0 55.845 -2.59849e-07 
275 1 0.142824 0.178558 0.210383 55.845 5.23592e-07 
277 1 0.17863 0.214458 0.210364 55.845 4.05017e-07 
287 1 0.178478 0.142958 0.210263 55.845 4.73738e-07 
289 1 0.214295 0.178604 0.210345 55.845 5.24359e-07 
291 1 0.250219 0.214338 0.210465 55.845 5.72511e-07 
301 1 0.250028 0.142963 0.210443 55.845 4.45081e-07 
377 1 0.142799 0.178626 0.12692 55.845 -5.63678e-07 
378 1 0.142926 0.214391 0.168563 55.845 -8.66426e-08 
379 1 0.178627 0.214379 0.127076 55.845 -6.05386e-07 
388 1 0.14274 0.142879 0.168153 55.845 -2.761e-07 
389 1 0.178556 0.142978 0.126855 55.845 -5.53094e-07 
390 1 0.178492 0.178615 0.168553 55.845 -1.96215e-07 
391 1 0.214373 0.178683 0.126913 55.845 -5.1149e-07 
392 1 0.214332 0.2144 0.168676 55.845 -3.98622e-08 
393 1 0.250074 0.214258 0.127032 55.845 -6.75225e-07 
402 1 0.214284 0.142924 0.168445 55.845 -2.10968e-07 
403 1 0.250028 0.142909 0.126936 55.845 -3.83608e-07 
404 1 0.25004 0.178677 0.168598 55.845 -2.79183e-07 
479 1 0.142857 0.178571 0.0416667 55.845 -4.08632e-07 
480 1 0.142823 0.2143 0.0854989 55.845 8.22472e-07 
481 1 0.178571 0.214286 0.0416667 55.845 -3.52502e-07 
490 1 0.142777 0.142974 0.0853569 55.845 5.56204e-07 
491 1 0.178571 0.142857 0.0416667 55.845 -4.18438e-07 
492 1 0.178617 0.178728 0.0853067 55.845 5.9604e-07 
493 1 0.214286 0.178571 0.0416667 55.845 -2.35675e-07 
494 1 0.21431 0.214434 0.0852134 55.845 7.46008e-07 
495 1 0.25 0.214286 0.0416667 55.845 -3.80838e-07 
504 1 0.214221 0.142908 0.0854023 55.845 6.9276e-07 
505 1 0.25 0.142857 0.0416667 55.845 -2.06696e-07 
506 1 0.24994 0.178662 0.085154 55.845 7.3883e-07 
571 1 0.142857 0.214286 0 55.845 -1.29476e-07 
576 1 0.142857 0.142857 0 55.845 -2.41821e-07 
577 1 0.178571 0.178571 0 55.845 5.10154e-08 
578 1 0.214286 0.214286 0 55.845 -9.1821e-08 
583 1 0.214286 0.142857 0 55.845 3.34639e-09 
584 1 0.25 0.178571 0 55.845 9.92897e-08 
303 1 0.285703 0.17866 0.210536 55.845 7.05467e-07 
305 1 0.32165 0.214263 0.210466 55.845 6.65041e-07 
315 1 0.32147 0.142881 0.210391 55.845 6.30517e-07 
317 1 0.357191 0.178656 0.210385 55.845 6.67633e-07 
405 1 0.285745 0.178542 0.126953 55.845 -4.89095e-07 
406 1 0.285847 0.214362 0.16856 55.845 -2.53853e-07 
407 1 0.321471 0.214331 0.12697 55.845 -3.74053e-07 
416 1 0.285695 0.142882 0.168595 55.845 -2.89476e-07 
417 1 0.321401 0.142998 0.126861 55.845 -2.44735e-07 
418 1 0.321485 0.178605 0.168562 55.845 -4.31409e-07 
419 1 0.357126 0.178634 0.126917 55.845 -2.43297e-07 
420 1 0.357192 0.214275 0.168528 55.845 -4.06086e-07 
432 1 0.35711 0.142888 0.168535 55.845 -4.61105e-07 
507 1 0.285714 0.178571 0.0416667 55.845 -2.03756e-07 
508 1 0.285833 0.214337 0.0852425 55.845 7.54609e-07 
509 1 0.321429 0.214286 0.0416667 55.845 -3.65307e-07 
518 1 0.285789 0.142822 0.0853134 55.845 7.09386e-07 
519 1 0.321429 0.142857 0.0416667 55.845 -4.13641e-07 
520 1 0.321462 0.17859 0.0852827 55.845 6.96621e-07 
521 1 0.357143 0.178571 0.0416667 55.845 -4.29959e-07 
522 1 0.357266 0.214346 0.0853923 55.845 8.27464e-07 
534 1 0.357193 0.142834 0.0853572 55.845 5.98658e-07 
585 1 0.285714 0.214286 0 55.845 -2.04498e-07 
590 1 0.285714 0.142857 0 55.845 -3.89081e-08 
591 1 0.321429 0.178571 0 55.845 -2.04486e-07 
592 1 0.357143 0.214286 0 55.845 -1.46798e-07 
598 1 0.357143 0.142857 0 55.845 -3.68711e-07 
319 1 0.392919 0.214251 0.210358 55.845 3.35587e-07 
321 1 0.428496 0.250043 0.210685 55.845 2.92798e-07 
331 1 0.392817 0.142715 0.210271 55.845 4.25377e-07 
333 1 0.428591 0.178468 0.210415 55.845 3.02305e-07 
335 1 0.464317 0.21425 0.210498 55.845 3.12351e-07 
345 1 0.464165 0.142882 0.210381 55.845 2.85923e-07 
606 1 0.464286 0.178571 0 55.845 -4.24572e-07 
421 1 0.392979 0.214282 0.127082 55.845 -1.47565e-07 
422 1 0.392998 0.249951 0.16841 55.845 -1.35142e-07 
423 1 0.428728 0.250028 0.126975 55.845 -2.74036e-07 
433 1 0.39282 0.142916 0.127029 55.845 -1.37494e-07 
434 1 0.392967 0.178636 0.168474 55.845 -3.36087e-07 
435 1 0.42858 0.178644 0.127043 55.845 -1.84162e-07 
436 1 0.428615 0.214385 0.168725 55.845 -2.53032e-07 
437 1 0.464401 0.214358 0.127106 55.845 -2.95654e-07 
605 1 0.428571 0.142857 0 55.845 -3.21385e-07 
446 1 0.428597 0.142879 0.168348 55.845 -1.98341e-07 
447 1 0.464283 0.142909 0.127069 55.845 -3.41972e-07 
448 1 0.464401 0.17879 0.168605 55.845 -3.08793e-07 
523 1 0.392857 0.214286 0.0416667 55.845 -3.98349e-07 
524 1 0.392817 0.249996 0.0853253 55.845 8.0872e-07 
525 1 0.428571 0.25 0.0416667 55.845 -4.22665e-07 
535 1 0.392857 0.142857 0.0416667 55.845 -4.71591e-07 
536 1 0.392842 0.178672 0.0852264 55.845 7.47073e-07 
537 1 0.428571 0.178571 0.0416667 55.845 -3.90753e-07 
538 1 0.428527 0.214406 0.0852518 55.845 7.47297e-07 
539 1 0.464286 0.214286 0.0416667 55.845 -3.85025e-07 
548 1 0.42859 0.142879 0.0853678 55.845 8.25703e-07 
549 1 0.464286 0.142857 0.0416667 55.845 -2.95138e-07 
550 1 0.464337 0.178717 0.0853029 55.845 1.0127e-06 
593 1 0.392857 0.25 0 55.845 -1.77471e-07 
599 1 0.392857 0.178571 0 55.845 -2.91476e-07 
600 1 0.428571 0.214286 0 55.845 -3.09469e-07 
3 1 0.000125419 0.10716 0.461686 55.845 -8.02349e-07 
7 1 7.04769e-05 0.0357691 0.461672 55.845 -7.02252e-07 
8 1 0.0357102 0.0713631 0.461592 55.845 -8.11824e-07 
9 1 0.0715162 0.107216 0.461506 55.845 -7.72744e-07 
13 1 0.0358233 6.69952e-05 0.461727 55.845 -6.77903e-07 
14 1 0.071513 0.0357466 0.461631 55.845 -6.87581e-07 
15 1 0.107166 0.0714447 0.461585 55.845 -7.21701e-07 
20 1 0.107268 3.98696e-05 0.461435 55.845 -5.11086e-07 
55 1 9.29478e-05 0.107098 0.379056 55.845 4.6231e-07 
63 1 -1.32064e-05 0.0358943 0.379221 55.845 9.73473e-08 
64 1 -0.000111065 0.0714589 0.420458 55.845 -2.31948e-07 
65 1 0.0357977 0.071435 0.379022 55.845 4.52275e-07 
66 1 0.0357586 0.107072 0.420443 55.845 -2.63244e-07 
67 1 0.0714178 0.107167 0.379302 55.845 4.71374e-07 
74 1 4.39213e-05 0.000169273 0.420446 55.845 -1.12757e-07 
75 1 0.0357269 -0.000121835 0.379008 55.845 2.23649e-07 
76 1 0.035792 0.0358089 0.420467 55.845 -2.42604e-07 
77 1 0.071381 0.0356589 0.379175 55.845 1.95015e-07 
78 1 0.071405 0.0713657 0.420468 55.845 -1.80293e-07 
79 1 0.107124 0.0714502 0.379233 55.845 3.63176e-07 
80 1 0.107103 0.107298 0.420361 55.845 -3.15047e-07 
88 1 0.0714129 -8.66473e-07 0.420418 55.845 -1.44626e-07 
89 1 0.107104 5.89087e-05 0.378738 55.845 1.78105e-07 
90 1 0.107272 0.0357283 0.420331 55.845 -1.63798e-07 
157 1 9.53504e-05 0.107184 0.294157 55.845 -5.40825e-08 
165 1 -3.6441e-05 0.0357689 0.293953 55.845 7.97743e-08 
166 1 -6.43772e-06 0.0714865 0.336127 55.845 1.40714e-07 
167 1 0.0356884 0.0715781 0.294095 55.845 8.78221e-08 
168 1 0.0358513 0.107157 0.336159 55.845 -6.17624e-08 
169 1 0.0714482 0.107122 0.294156 55.845 -1.39861e-07 
176 1 -5.00395e-05 8.67647e-05 0.336106 55.845 -4.69531e-09 
177 1 0.0357199 5.76391e-05 0.294058 55.845 1.56808e-07 
178 1 0.0356927 0.0357025 0.336082 55.845 3.25423e-08 
179 1 0.0715074 0.0356978 0.294074 55.845 2.58962e-07 
180 1 0.0714799 0.0714427 0.336299 55.845 -1.29702e-07 
181 1 0.107253 0.0713638 0.294211 55.845 8.26769e-08 
182 1 0.107227 0.107178 0.336154 55.845 -2.21271e-07 
190 1 0.0713953 0.000104843 0.336187 55.845 -5.75462e-08 
191 1 0.107195 0.000120366 0.294235 55.845 2.90801e-07 
192 1 0.107229 0.0356868 0.336309 55.845 -1.94065e-07 
268 1 -2.95844e-05 0.0716113 0.252333 55.845 -1.14664e-07 
270 1 0.0357438 0.107244 0.252561 55.845 -2.40516e-07 
278 1 -0.00019829 -2.16164e-05 0.252443 55.845 -1.09088e-07 
280 1 0.0357433 0.0356532 0.252462 55.845 -6.39642e-08 
282 1 0.0715449 0.0714632 0.25238 55.845 -1.90127e-07 
284 1 0.107342 0.107114 0.252562 55.845 -2.68217e-07 
292 1 0.0714736 1.2703e-05 0.252179 55.845 -1.86135e-07 
294 1 0.107322 0.0358318 0.252144 55.845 -2.33303e-07 
16 1 0.14293 0.107183 0.461904 55.845 -8.48573e-07 
21 1 0.142989 0.0357235 0.46175 55.845 -6.96574e-07 
22 1 0.178732 0.0714633 0.461821 55.845 -8.45737e-07 
23 1 0.214424 0.107188 0.461773 55.845 -7.9608e-07 
27 1 0.178586 4.68959e-05 0.461701 55.845 -8.28144e-07 
28 1 0.21447 0.0357883 0.461697 55.845 -9.38654e-07 
29 1 0.250095 0.0714409 0.461705 55.845 -8.5728e-07 
81 1 0.142873 0.107126 0.379262 55.845 3.70914e-07 
91 1 0.142973 0.0358931 0.379297 55.845 2.92616e-07 
92 1 0.142842 0.0714937 0.420592 55.845 -1.71825e-07 
93 1 0.178694 0.0713873 0.379396 55.845 3.22922e-07 
94 1 0.1786 0.10716 0.420462 55.845 -8.97172e-08 
95 1 0.214349 0.107113 0.379195 55.845 1.20569e-07 
102 1 0.142947 0.000116178 0.420377 55.845 -1.40606e-07 
103 1 0.178724 0.000126873 0.379325 55.845 5.03062e-07 
104 1 0.17876 0.0357978 0.420547 55.845 -1.1636e-07 
105 1 0.214366 0.0356918 0.379264 55.845 4.3372e-07 
106 1 0.214439 0.0714288 0.420455 55.845 -4.6102e-08 
107 1 0.249953 0.0713605 0.378949 55.845 1.70587e-07 
108 1 0.25011 0.107066 0.420234 55.845 3.27867e-08 
118 1 0.214364 6.55326e-05 0.420617 55.845 -2.41339e-07 
120 1 0.250185 0.0357003 0.420576 55.845 -1.06791e-07 
183 1 0.14297 0.107155 0.294086 55.845 1.18108e-07 
193 1 0.142869 0.0357336 0.294312 55.845 8.71772e-08 
194 1 0.142881 0.0716012 0.336357 55.845 -2.42568e-07 
195 1 0.178598 0.0714262 0.294264 55.845 -1.81909e-08 
196 1 0.178781 0.107117 0.336203 55.845 -2.07735e-07 
197 1 0.214406 0.107195 0.294121 55.845 1.55422e-08 
204 1 0.142968 0.000139913 0.33646 55.845 -1.38175e-07 
205 1 0.178522 0.0001875 0.294267 55.845 -1.09907e-07 
206 1 0.178564 0.0358125 0.336313 55.845 -1.49659e-07 
207 1 0.21418 0.0358567 0.294143 55.845 -1.4293e-08 
208 1 0.214244 0.0714485 0.336102 55.845 -1.49661e-07 
209 1 0.249991 0.0713541 0.29408 55.845 2.23003e-08 
210 1 0.250083 0.107154 0.336006 55.845 -2.75469e-07 
220 1 0.214312 0.000116054 0.336271 55.845 8.82264e-08 
222 1 0.250116 0.035596 0.336028 55.845 -2.67608e-08 
296 1 0.142965 0.0713236 0.252373 55.845 -1.71088e-07 
298 1 0.178486 0.107245 0.252353 55.845 -1.55143e-08 
306 1 0.142932 0.000164716 0.252415 55.845 -2.72243e-07 
308 1 0.178609 0.0358014 0.252211 55.845 -2.21734e-07 
310 1 0.21421 0.0715051 0.252423 55.845 7.06266e-08 
312 1 0.250009 0.107192 0.252406 55.845 -6.212e-08 
322 1 0.214103 -5.64074e-06 0.252427 55.845 -1.23953e-07 
324 1 0.24989 0.0356633 0.252395 55.845 3.04866e-08 
30 1 0.285754 0.107155 0.461751 55.845 -8.84669e-07 
35 1 0.250023 3.39314e-05 0.461657 55.845 -8.15153e-07 
36 1 0.285729 0.03577 0.461571 55.845 -9.23843e-07 
37 1 0.32147 0.0714537 0.461528 55.845 -9.79565e-07 
38 1 0.357132 0.10708 0.461692 55.845 -9.66896e-07 
42 1 0.321373 0.00013794 0.461375 55.845 -7.24625e-07 
43 1 0.357052 0.0357159 0.461785 55.845 -8.77307e-07 
109 1 0.285759 0.107252 0.379031 55.845 9.15558e-08 
119 1 0.249949 -2.71684e-05 0.379425 55.845 3.93841e-07 
121 1 0.285693 0.0356987 0.379113 55.845 3.47064e-07 
122 1 0.285781 0.0714298 0.420394 55.845 -2.45546e-08 
123 1 0.321485 0.0714555 0.379078 55.845 2.19513e-07 
124 1 0.321456 0.107198 0.420394 55.845 3.03952e-08 
125 1 0.357173 0.107055 0.379366 55.845 2.27969e-07 
133 1 0.321567 3.40504e-05 0.379094 55.845 3.6368e-07 
134 1 0.321441 0.0356653 0.420403 55.845 -1.24395e-07 
135 1 0.357185 0.0357467 0.378962 55.845 4.05517e-07 
136 1 0.357143 0.0713526 0.420483 55.845 -1.00623e-07 
211 1 0.285816 0.107232 0.294309 55.845 1.92305e-08 
221 1 0.249977 -2.31316e-05 0.294225 55.845 1.02814e-07 
223 1 0.285692 0.0357149 0.294051 55.845 3.48306e-08 
224 1 0.285728 0.0714206 0.336185 55.845 -1.7791e-07 
225 1 0.321528 0.0714709 0.294013 55.845 -1.0082e-08 
226 1 0.321518 0.107094 0.336026 55.845 -1.55315e-07 
227 1 0.357263 0.10734 0.294132 55.845 1.77368e-07 
235 1 0.321464 -4.64265e-05 0.294177 55.845 1.21578e-08 
236 1 0.321355 0.0357648 0.336262 55.845 -2.75928e-07 
237 1 0.357208 0.0356753 0.294064 55.845 -2.13306e-07 
238 1 0.357189 0.0714414 0.336081 55.845 -3.04904e-07 
326 1 0.285669 0.0714774 0.252418 55.845 5.76073e-09 
328 1 0.321419 0.107194 0.252314 55.845 -7.06413e-08 
338 1 0.321412 0.0358065 0.252406 55.845 -1.94195e-07 
340 1 0.357371 0.0715217 0.252513 55.845 -5.51045e-08 
44 1 0.392867 0.0714319 0.461477 55.845 -9.21746e-07 
45 1 0.428667 0.107084 0.461783 55.845 -8.6599e-07 
47 1 0.392858 -8.28867e-05 0.461671 55.845 -7.5122e-07 
48 1 0.428577 0.0356094 0.461685 55.845 -7.01302e-07 
49 1 0.464371 0.0714618 0.461801 55.845 -7.13467e-07 
50 1 0.464309 7.27708e-05 0.461645 55.845 -4.92753e-07 
137 1 0.39286 0.071546 0.379108 55.845 2.94248e-07 
138 1 0.392881 0.107116 0.420673 55.845 -5.92131e-08 
139 1 0.428593 0.107234 0.379227 55.845 1.92635e-07 
144 1 0.392799 -0.000121137 0.3792 55.845 5.947e-07 
145 1 0.392805 0.0357063 0.420502 55.845 -2.08284e-07 
146 1 0.428565 0.035627 0.379519 55.845 3.54868e-07 
147 1 0.428644 0.0714103 0.420412 55.845 -3.10175e-08 
148 1 0.464365 0.0716581 0.379407 55.845 1.96916e-07 
149 1 0.464394 0.107279 0.420544 55.845 -2.42658e-07 
150 1 0.42856 -0.000115726 0.420538 55.845 -3.82498e-07 
151 1 0.464404 1.75935e-05 0.379283 55.845 3.28702e-07 
152 1 0.464372 0.0358074 0.420405 55.845 -1.97432e-07 
239 1 0.392976 0.0714989 0.294268 55.845 -3.85024e-08 
240 1 0.392849 0.107165 0.336347 55.845 -8.84598e-08 
241 1 0.428611 0.107185 0.294162 55.845 5.49312e-08 
246 1 0.392989 2.15767e-05 0.294206 55.845 -1.13296e-07 
247 1 0.392833 0.0357102 0.336245 55.845 -2.70254e-07 
248 1 0.428466 0.0356981 0.294291 55.845 6.42221e-08 
249 1 0.428618 0.0713729 0.336471 55.845 -2.03555e-07 
250 1 0.464426 0.0714042 0.294255 55.845 1.62335e-07 
251 1 0.464289 0.107123 0.336551 55.845 -6.52176e-08 
252 1 0.428547 3.47745e-05 0.336455 55.845 -2.71953e-07 
253 1 0.464299 0.000126203 0.294454 55.845 2.6771e-07 
254 1 0.464296 0.0357448 0.336426 55.845 -1.97014e-07 
342 1 0.392877 0.107073 0.252493 55.845 -1.11588e-07 
349 1 0.392923 0.0357151 0.25253 55.845 -7.43262e-08 
351 1 0.428494 0.0714173 0.252495 55.845 -2.22897e-08 
353 1 0.464179 0.107076 0.252549 55.845 -1.59574e-07 
354 1 0.428559 -0.000100097 0.252526 55.845 1.15414e-07 
356 1 0.464205 0.0357214 0.252457 55.845 6.8365e-08 
1 1 0.000100109 0.178359 0.461614 55.845 -6.70662e-07 
2 1 0.0358367 0.214233 0.461938 55.845 -7.65207e-07 
4 1 0.0357662 0.14289 0.4616 55.845 -6.62061e-07 
5 1 0.0716194 0.178573 0.461526 55.845 -6.8352e-07 
6 1 0.107302 0.214131 0.461742 55.845 -6.80142e-07 
10 1 0.107186 0.142873 0.461704 55.845 -7.68434e-07 
51 1 4.4629e-05 0.178477 0.379324 55.845 2.75986e-07 
52 1 9.85072e-05 0.214255 0.420669 55.845 -1.56252e-07 
53 1 0.0358538 0.214233 0.379327 55.845 3.5162e-07 
54 1 0.0357216 0.250017 0.420577 55.845 -3.63929e-07 
56 1 6.43712e-05 0.14283 0.420329 55.845 -1.57842e-07 
57 1 0.0358371 0.14275 0.379142 55.845 3.01093e-07 
58 1 0.0359057 0.178518 0.420402 55.845 -2.55686e-07 
59 1 0.0715629 0.178609 0.37907 55.845 4.2867e-07 
60 1 0.0714759 0.214207 0.42058 55.845 -4.01546e-07 
61 1 0.10721 0.214329 0.379239 55.845 4.43231e-07 
62 1 0.107083 0.249919 0.420709 55.845 -3.95967e-07 
68 1 0.0715832 0.142902 0.420334 55.845 -3.97348e-07 
69 1 0.107346 0.142946 0.379049 55.845 4.85976e-07 
70 1 0.107317 0.178478 0.420477 55.845 -3.38536e-07 
153 1 4.17516e-05 0.178536 0.29435 55.845 1.43854e-07 
154 1 6.74524e-05 0.214305 0.336478 55.845 1.82198e-08 
155 1 0.0356499 0.214202 0.294116 55.845 1.79759e-07 
156 1 0.0356753 0.249913 0.336138 55.845 1.4163e-07 
158 1 5.36617e-05 0.142853 0.336294 55.845 -2.08741e-08 
159 1 0.0357933 0.142853 0.294404 55.845 -2.54238e-08 
160 1 0.0359159 0.178585 0.33642 55.845 -8.56572e-08 
161 1 0.0715235 0.178585 0.294127 55.845 1.13434e-07 
162 1 0.0714353 0.214217 0.336322 55.845 -1.05213e-07 
163 1 0.107181 0.214368 0.294181 55.845 4.17987e-08 
164 1 0.107176 0.249916 0.336244 55.845 -2.47655e-07 
170 1 0.0716898 0.142855 0.336417 55.845 -2.08101e-07 
171 1 0.107305 0.142889 0.294291 55.845 2.19684e-07 
172 1 0.107202 0.178651 0.336312 55.845 -1.62288e-07 
256 1 7.52239e-06 0.21444 0.252757 55.845 -3.11718e-07 
258 1 0.0359319 0.249922 0.252503 55.845 -8.9948e-08 
260 1 9.79811e-05 0.142942 0.252494 55.845 -3.05534e-07 
262 1 0.0358507 0.178552 0.252651 55.845 -3.83866e-07 
264 1 0.0714979 0.214321 0.252211 55.845 -1.94406e-07 
266 1 0.10714 0.250115 0.252492 55.845 -1.35302e-07 
272 1 0.0715616 0.142776 0.252416 55.845 -2.27557e-07 
274 1 0.107273 0.178743 0.252426 55.845 -1.28792e-07 
11 1 0.143042 0.178371 0.461751 55.845 -7.36431e-07 
12 1 0.178755 0.214146 0.46174 55.845 -4.18462e-07 
17 1 0.178648 0.142836 0.461693 55.845 -6.35441e-07 
18 1 0.214387 0.178467 0.46149 55.845 -5.83716e-07 
19 1 0.249978 0.214185 0.461667 55.845 -7.851e-07 
24 1 0.250015 0.142859 0.461488 55.845 -6.74638e-07 
71 1 0.142977 0.178575 0.379021 55.845 2.31934e-07 
72 1 0.143002 0.214141 0.420475 55.845 -2.47175e-07 
73 1 0.178717 0.214291 0.37913 55.845 9.78094e-08 
82 1 0.143003 0.142847 0.420226 55.845 -2.88776e-07 
83 1 0.178735 0.142801 0.37908 55.845 7.87755e-08 
84 1 0.178774 0.178494 0.420454 55.845 -1.78648e-07 
85 1 0.214272 0.17857 0.379023 55.845 1.57251e-08 
86 1 0.214276 0.214245 0.420343 55.845 -2.25535e-07 
87 1 0.250099 0.214247 0.379039 55.845 3.56071e-07 
96 1 0.214228 0.142791 0.420327 55.845 -8.80398e-08 
97 1 0.250055 0.142896 0.379075 55.845 4.79662e-08 
98 1 0.250097 0.178517 0.420311 55.845 -1.89448e-07 
173 1 0.142852 0.178665 0.294321 55.845 2.12577e-07 
174 1 0.142968 0.214322 0.336122 55.845 -3.30328e-07 
175 1 0.178606 0.214346 0.294204 55.845 5.73147e-08 
184 1 0.143054 0.142799 0.336195 55.845 -1.12693e-07 
185 1 0.178539 0.142937 0.29423 55.845 1.77283e-07 
186 1 0.178512 0.178602 0.336268 55.845 -2.11061e-07 
187 1 0.214129 0.178593 0.294199 55.845 -1.92709e-08 
188 1 0.21433 0.214394 0.336093 55.845 -1.89988e-07 
189 1 0.249981 0.214272 0.294169 55.845 -8.0397e-08 
198 1 0.214318 0.142786 0.335874 55.845 -3.1101e-07 
199 1 0.249908 0.142857 0.294048 55.845 -1.21274e-07 
200 1 0.249933 0.178566 0.336111 55.845 -3.00756e-07 
276 1 0.142851 0.214425 0.252141 55.845 -1.68353e-07 
286 1 0.142816 0.142955 0.252318 55.845 -1.31156e-08 
288 1 0.178442 0.178606 0.252527 55.845 -4.4036e-08 
290 1 0.214321 0.214118 0.252342 55.845 -1.83085e-08 
300 1 0.214162 0.142805 0.252266 55.845 -8.56675e-08 
302 1 0.249924 0.178552 0.252496 55.845 -7.96217e-08 
25 1 0.285715 0.178617 0.461706 55.845 -8.45071e-07 
26 1 0.321425 0.214281 0.461636 55.845 -9.32558e-07 
31 1 0.321389 0.142839 0.461665 55.845 -9.93868e-07 
32 1 0.357202 0.178605 0.461713 55.845 -9.68235e-07 
99 1 0.28582 0.178476 0.378845 55.845 2.61976e-07 
100 1 0.285725 0.214239 0.420296 55.845 -2.83879e-07 
101 1 0.32161 0.21423 0.379227 55.845 4.31879e-07 
110 1 0.285815 0.142907 0.420397 55.845 -3.84169e-08 
111 1 0.321407 0.142969 0.379152 55.845 1.87644e-07 
112 1 0.321508 0.178603 0.420382 55.845 -2.05343e-07 
113 1 0.357255 0.178427 0.37948 55.845 3.26851e-07 
114 1 0.357137 0.21445 0.420493 55.845 -2.14306e-07 
126 1 0.357153 0.142763 0.420793 55.845 -2.49071e-08 
201 1 0.285742 0.17858 0.294351 55.845 -7.039e-08 
202 1 0.285846 0.214301 0.336183 55.845 -1.35356e-07 
203 1 0.321556 0.214365 0.294206 55.845 -2.56096e-08 
212 1 0.285708 0.142748 0.335957 55.845 -2.53575e-07 
213 1 0.321547 0.142901 0.294154 55.845 5.47085e-08 
214 1 0.321572 0.178673 0.336055 55.845 -1.16845e-07 