ITEM: TIMESTEP
8900
ITEM: NUMBER OF ATOMS
5880
ITEM: BOX BOUNDS pp pp ff
-27.9186 27.9186
-27.9186 27.9186
0 34.092
ITEM: ATOMS id type xs ys zs mass q 
259 1 7.93024e-05 0.107063 0.20996 55.845 -1.88397e-07 
267 1 0.00012446 0.0357629 0.210183 55.845 -4.49827e-07 
269 1 0.0358615 0.0714157 0.210014 55.845 -5.95117e-07 
271 1 0.0715034 0.107131 0.210134 55.845 -4.02856e-07 
279 1 0.0356549 -8.87648e-06 0.210044 55.845 -5.8598e-07 
281 1 0.0714771 0.0355692 0.210302 55.845 -5.00344e-07 
283 1 0.107104 0.0713255 0.21019 55.845 -4.55353e-07 
293 1 0.10704 -9.13683e-06 0.210117 55.845 -3.45098e-07 
361 1 -8.50127e-05 0.107125 0.125727 55.845 -3.36907e-07 
369 1 2.56896e-05 0.0357115 0.125746 55.845 -2.57675e-07 
370 1 0.000111975 0.0713604 0.168386 55.845 7.05934e-07 
371 1 0.0357547 0.0714337 0.125737 55.845 -4.68288e-07 
372 1 0.0357556 0.107144 0.168206 55.845 7.27972e-07 
373 1 0.0714584 0.107185 0.125706 55.845 -5.54749e-07 
380 1 1.90818e-05 0.000168209 0.168257 55.845 8.45773e-07 
381 1 0.035751 -3.46411e-05 0.125962 55.845 -2.88283e-07 
382 1 0.0357538 0.0357007 0.168412 55.845 5.82946e-07 
383 1 0.0714377 0.0357074 0.125768 55.845 -4.12259e-07 
384 1 0.0714627 0.0713611 0.1683 55.845 7.58296e-07 
385 1 0.107123 0.0714492 0.125767 55.845 -4.42491e-07 
386 1 0.107128 0.107219 0.168385 55.845 8.07369e-07 
394 1 0.0713215 3.57133e-05 0.168387 55.845 5.04278e-07 
395 1 0.107069 -0.000105849 0.125685 55.845 -1.93828e-07 
396 1 0.107233 0.0355946 0.168401 55.845 4.83249e-07 
463 1 0 0.107143 0.0416667 55.845 2.90303e-07 
471 1 0 0.0357143 0.0416667 55.845 1.03832e-07 
472 1 5.6292e-05 0.0714707 0.0834289 55.845 -8.0639e-08 
473 1 0.0357143 0.0714286 0.0416667 55.845 2.18715e-07 
474 1 0.0358139 0.10716 0.0831542 55.845 -6.28413e-07 
475 1 0.0714286 0.107143 0.0416667 55.845 4.31791e-07 
482 1 -1.17916e-05 5.46669e-05 0.0833355 55.845 9.51627e-08 
483 1 0.0357143 0 0.0416667 55.845 3.72343e-10 
484 1 0.035806 0.0357466 0.0833346 55.845 3.808e-08 
485 1 0.0714286 0.0357143 0.0416667 55.845 -2.09512e-08 
486 1 0.0714744 0.0713325 0.0832218 55.845 -3.3517e-07 
487 1 0.107143 0.0714286 0.0416667 55.845 2.04734e-07 
488 1 0.107023 0.107181 0.0834943 55.845 -2.50755e-07 
496 1 0.0714909 3.38556e-05 0.083447 55.845 6.42765e-08 
497 1 0.107143 0 0.0416667 55.845 -1.20141e-07 
498 1 0.107158 0.0357006 0.0833553 55.845 -1.04872e-07 
567 1 0 0.0714286 0 55.845 -2.07264e-07 
568 1 0.0357143 0.107143 0 55.845 -3.09237e-07 
572 1 0 0 0 55.845 -2.30208e-07 
573 1 0.0357143 0.0357143 0 55.845 -3.26986e-08 
574 1 0.0714286 0.0714286 0 55.845 -4.01914e-07 
575 1 0.107143 0.107143 0 55.845 -2.39563e-07 
579 1 0.0714286 0 0 55.845 -6.13477e-08 
580 1 0.107143 0.0357143 0 55.845 -8.53501e-08 
285 1 0.14285 0.10721 0.210041 55.845 -3.53107e-07 
295 1 0.142843 0.0357171 0.209819 55.845 -3.8126e-07 
297 1 0.178427 0.0714437 0.20987 55.845 -5.46675e-07 
299 1 0.214143 0.107104 0.209956 55.845 -5.53932e-07 
307 1 0.178474 5.09055e-05 0.210022 55.845 -2.79922e-07 
309 1 0.214228 0.0356581 0.209942 55.845 -4.48704e-07 
311 1 0.249882 0.0714372 0.210064 55.845 -6.0228e-07 
387 1 0.142746 0.107174 0.125848 55.845 -3.40366e-07 
397 1 0.142891 0.0357034 0.125633 55.845 -4.50185e-07 
398 1 0.142792 0.0714428 0.168488 55.845 7.89595e-07 
399 1 0.178474 0.0714411 0.125674 55.845 -4.84965e-07 
400 1 0.178516 0.107059 0.168331 55.845 6.1827e-07 
401 1 0.214201 0.107202 0.125761 55.845 -1.65572e-07 
408 1 0.142827 -0.000104945 0.168445 55.845 4.43149e-07 
409 1 0.178501 -2.6045e-05 0.12566 55.845 -4.46598e-07 
410 1 0.178569 0.0356716 0.168307 55.845 6.77097e-07 
411 1 0.214346 0.0357226 0.125794 55.845 -4.61904e-07 
412 1 0.214261 0.0714286 0.168151 55.845 6.83717e-07 
413 1 0.249927 0.0714783 0.125898 55.845 -3.77708e-07 
414 1 0.250059 0.107177 0.168455 55.845 6.14267e-07 
424 1 0.214185 -7.62995e-05 0.168216 55.845 6.72824e-07 
426 1 0.250008 0.0357189 0.168517 55.845 6.16117e-07 
489 1 0.142857 0.107143 0.0416667 55.845 3.20923e-07 
499 1 0.142857 0.0357143 0.0416667 55.845 5.56691e-08 
500 1 0.142847 0.0714232 0.0831597 55.845 -1.57241e-07 
501 1 0.178571 0.0714286 0.0416667 55.845 2.67913e-07 
502 1 0.178488 0.107211 0.0832565 55.845 -3.97142e-08 
503 1 0.214286 0.107143 0.0416667 55.845 -1.02349e-07 
510 1 0.142751 5.71877e-05 0.083276 55.845 -2.54041e-07 
511 1 0.178571 0 0.0416667 55.845 2.81387e-07 
512 1 0.178619 0.0356873 0.0834439 55.845 -2.11674e-07 
513 1 0.214286 0.0357143 0.0416667 55.845 2.73138e-07 
514 1 0.214215 0.0714646 0.0835139 55.845 -2.56259e-07 
515 1 0.25 0.0714286 0.0416667 55.845 2.39126e-07 
516 1 0.24999 0.10711 0.0833008 55.845 -1.15657e-07 
526 1 0.214342 -5.20503e-05 0.0834301 55.845 -3.99094e-07 
528 1 0.250054 0.0356876 0.0833671 55.845 -2.9577e-07 
581 1 0.142857 0.0714286 0 55.845 -2.42285e-07 
582 1 0.178571 0.107143 0 55.845 -1.43531e-07 
586 1 0.142857 0 0 55.845 -1.21084e-07 
587 1 0.178571 0.0357143 0 55.845 -2.45942e-07 
588 1 0.214286 0.0714286 0 55.845 -2.5043e-07 
589 1 0.25 0.107143 0 55.845 -2.42864e-07 
594 1 0.214286 0 0 55.845 -1.32481e-07 
595 1 0.25 0.0357143 0 55.845 -2.67238e-07 
313 1 0.285503 0.107133 0.21017 55.845 -3.70933e-07 
323 1 0.249973 -5.65349e-05 0.210066 55.845 -3.02979e-07 
325 1 0.285717 0.035814 0.210127 55.845 -5.05121e-07 
327 1 0.321388 0.0714061 0.210053 55.845 -4.98802e-07 
329 1 0.357205 0.106977 0.210144 55.845 -4.46931e-07 
337 1 0.321356 7.80765e-06 0.210025 55.845 -4.27575e-07 
339 1 0.357078 0.035709 0.210001 55.845 -3.11723e-07 
415 1 0.285796 0.107212 0.125758 55.845 -2.13619e-07 
425 1 0.249971 8.37463e-06 0.125775 55.845 -2.88597e-07 
427 1 0.285752 0.0356342 0.125897 55.845 -4.21433e-07 
428 1 0.285695 0.071404 0.168426 55.845 5.24245e-07 
429 1 0.321402 0.071487 0.125764 55.845 -3.37515e-07 
430 1 0.321398 0.107168 0.168603 55.845 6.15971e-07 
431 1 0.35699 0.107236 0.125754 55.845 -2.31695e-07 
439 1 0.321366 -0.000147489 0.125747 55.845 -2.64043e-07 
440 1 0.321418 0.0357411 0.168382 55.845 3.56968e-07 
441 1 0.357156 0.0355533 0.125514 55.845 -4.56785e-07 
442 1 0.357143 0.0713767 0.168304 55.845 5.48806e-07 
517 1 0.285714 0.107143 0.0416667 55.845 6.17613e-08 
527 1 0.25 0 0.0416667 55.845 3.79112e-07 
529 1 0.285714 0.0357143 0.0416667 55.845 1.95043e-07 
530 1 0.285607 0.0713984 0.083334 55.845 -2.32881e-07 
531 1 0.321429 0.0714286 0.0416667 55.845 2.82254e-07 
532 1 0.321429 0.107269 0.0834421 55.845 -1.49334e-07 
533 1 0.357143 0.107143 0.0416667 55.845 3.29422e-07 
603 1 0.357143 0.0714286 0 55.845 -2.75387e-07 
541 1 0.321429 0 0.0416667 55.845 2.32291e-07 
542 1 0.321374 0.0356613 0.0833496 55.845 -3.78057e-07 
543 1 0.357143 0.0357143 0.0416667 55.845 3.39068e-07 
544 1 0.357202 0.0714401 0.0833715 55.845 -3.99263e-07 
602 1 0.321429 0.0357143 0 55.845 -3.94789e-07 
596 1 0.285714 0.0714286 0 55.845 -2.53682e-07 
597 1 0.321429 0.107143 0 55.845 -2.0961e-07 
612 1 0.464286 0.0357143 0 55.845 2.65616e-08 
611 1 0.428571 0 0 55.845 -3.29919e-07 
610 1 0.464286 0.107143 0 55.845 -3.00694e-08 
609 1 0.428571 0.0714286 0 55.845 -3.87295e-08 
608 1 0.392857 0.0357143 0 55.845 -3.8765e-07 
341 1 0.392802 0.0713707 0.210048 55.845 -2.09076e-07 
343 1 0.428513 0.107129 0.209992 55.845 -3.78878e-07 
348 1 0.392776 -4.08404e-05 0.210224 55.845 -2.86154e-07 
350 1 0.428497 0.0355099 0.210018 55.845 -5.90115e-07 
352 1 0.464323 0.0714611 0.209975 55.845 -5.64558e-07 
355 1 0.464181 -0.000142307 0.210011 55.845 -6.66472e-07 
443 1 0.392847 0.0713932 0.125778 55.845 -2.96681e-07 
444 1 0.392871 0.107106 0.1683 55.845 4.82658e-07 
445 1 0.428544 0.107267 0.125562 55.845 -3.50855e-07 
604 1 0.392857 0.107143 0 55.845 -5.90209e-08 
450 1 0.392845 -7.00747e-05 0.125751 55.845 -3.49714e-07 
451 1 0.392852 0.0355991 0.168298 55.845 6.28353e-07 
452 1 0.428547 0.0356852 0.125573 55.845 -2.28085e-07 
453 1 0.428492 0.0714095 0.168347 55.845 4.4937e-07 
454 1 0.464379 0.0715206 0.12578 55.845 -4.31525e-07 
455 1 0.464253 0.107134 0.168224 55.845 7.34288e-07 
456 1 0.428562 -2.57536e-05 0.168199 55.845 7.2071e-07 
457 1 0.464361 2.45533e-05 0.125777 55.845 -2.45082e-07 
458 1 0.464257 0.0356511 0.168478 55.845 5.76398e-07 
545 1 0.392857 0.0714286 0.0416667 55.845 2.57468e-07 
546 1 0.39274 0.107155 0.083272 55.845 -1.98503e-07 
547 1 0.428571 0.107143 0.0416667 55.845 -7.25498e-08 
552 1 0.392857 0 0.0416667 55.845 4.88756e-07 
553 1 0.392881 0.0356609 0.0832427 55.845 -3.49923e-07 
554 1 0.428571 0.0357143 0.0416667 55.845 1.89262e-08 
555 1 0.428593 0.0713716 0.0832322 55.845 -4.66852e-08 
556 1 0.464286 0.0714286 0.0416667 55.845 -2.27947e-07 
557 1 0.464241 0.107177 0.0833405 55.845 -1.96704e-07 
558 1 0.428608 -0.000117993 0.0832107 55.845 -1.26914e-07 
559 1 0.464286 0 0.0416667 55.845 -1.03965e-07 
560 1 0.464291 0.0358163 0.0833455 55.845 3.16578e-08 
255 1 -2.10011e-06 0.178617 0.210308 55.845 1.84396e-07 
257 1 0.0356582 0.214445 0.209945 55.845 -4.91854e-08 
261 1 0.0357915 0.1428 0.210038 55.845 -1.85808e-07 
263 1 0.071454 0.178652 0.210225 55.845 -8.11109e-08 
265 1 0.107236 0.214317 0.210299 55.845 -1.91004e-07 
273 1 0.107246 0.142873 0.210294 55.845 -2.42861e-07 
357 1 -1.58926e-07 0.178666 0.125657 55.845 1.20649e-07 
358 1 -6.76318e-05 0.214297 0.168534 55.845 5.10611e-08 
359 1 0.0356912 0.214432 0.125765 55.845 -1.54792e-07 
360 1 0.0355829 0.250085 0.168214 55.845 5.22014e-07 
362 1 -6.05394e-06 0.142895 0.168435 55.845 2.00643e-07 
363 1 0.0357607 0.142827 0.125768 55.845 -2.8695e-07 
364 1 0.0356714 0.178638 0.168602 55.845 1.31699e-07 
365 1 0.0714242 0.178539 0.125821 55.845 -1.13498e-07 
366 1 0.0714477 0.214329 0.168401 55.845 2.68827e-07 
367 1 0.107211 0.214264 0.125951 55.845 -2.11926e-07 
368 1 0.106958 0.249935 0.168159 55.845 6.05052e-07 
374 1 0.0714266 0.142861 0.168558 55.845 6.42014e-07 
375 1 0.107237 0.142953 0.12592 55.845 -2.14553e-07 
376 1 0.107212 0.178616 0.168479 55.845 4.30032e-07 
459 1 0 0.178571 0.0416667 55.845 -8.84731e-08 
460 1 -3.34105e-05 0.214218 0.0834686 55.845 -2.34617e-07 
461 1 0.0357143 0.214286 0.0416667 55.845 1.1823e-07 
462 1 0.0356891 0.250009 0.0832918 55.845 -2.24033e-07 
464 1 -1.87501e-05 0.142824 0.0832675 55.845 -4.96686e-07 
465 1 0.0357143 0.142857 0.0416667 55.845 2.74611e-07 
466 1 0.0357135 0.17861 0.0835589 55.845 -6.82007e-07 
467 1 0.0714286 0.178571 0.0416667 55.845 5.34932e-07 
468 1 0.0715119 0.214239 0.0832791 55.845 -4.3868e-07 
469 1 0.107143 0.214286 0.0416667 55.845 4.28836e-07 
470 1 0.106988 0.249974 0.0832082 55.845 -4.19092e-07 
476 1 0.0713865 0.142963 0.0834391 55.845 -5.96497e-07 
477 1 0.107143 0.142857 0.0416667 55.845 5.86818e-07 
478 1 0.107117 0.178596 0.0833636 55.845 -4.36333e-07 
561 1 0 0.214286 0 55.845 1.17789e-07 
562 1 0.0357143 0.25 0 55.845 -2.94704e-08 
563 1 0 0.142857 0 55.845 -1.89495e-07 
564 1 0.0357143 0.178571 0 55.845 -1.29187e-08 
565 1 0.0714286 0.214286 0 55.845 -2.53874e-07 
566 1 0.107143 0.25 0 55.845 -3.82997e-07 
569 1 0.0714286 0.142857 0 55.845 -5.36304e-07 
570 1 0.107143 0.178571 0 55.845 -2.33637e-07 
275 1 0.142935 0.178619 0.209936 55.845 -3.47168e-07 
277 1 0.178516 0.214324 0.210116 55.845 -4.2025e-07 
287 1 0.17864 0.142934 0.210191 55.845 -6.14668e-07 
289 1 0.214256 0.178551 0.21015 55.845 -5.8766e-07 
291 1 0.249959 0.214363 0.209927 55.845 -4.60021e-07 
301 1 0.249967 0.142885 0.21018 55.845 -3.90211e-07 
377 1 0.142934 0.178608 0.125839 55.845 -1.63334e-07 
378 1 0.142841 0.214307 0.168395 55.845 4.77787e-07 
379 1 0.178502 0.214237 0.12558 55.845 -1.03992e-07 
388 1 0.142863 0.142874 0.168353 55.845 6.79031e-07 
389 1 0.178563 0.142998 0.12594 55.845 -2.89399e-07 
390 1 0.178554 0.17868 0.168234 55.845 4.61851e-07 
391 1 0.214289 0.178662 0.125844 55.845 -1.51424e-07 
392 1 0.214193 0.21431 0.168289 55.845 5.33516e-07 
393 1 0.250001 0.214237 0.125743 55.845 -2.87853e-07 
402 1 0.214296 0.14287 0.168399 55.845 4.63567e-07 
403 1 0.249987 0.142831 0.125923 55.845 -2.53501e-07 
404 1 0.249973 0.178575 0.168534 55.845 7.534e-07 
479 1 0.142857 0.178571 0.0416667 55.845 3.7217e-07 
480 1 0.14278 0.214273 0.083173 55.845 -3.52909e-07 
481 1 0.178571 0.214286 0.0416667 55.845 8.16638e-08 
490 1 0.14289 0.14298 0.0833652 55.845 -7.07754e-08 
491 1 0.178571 0.142857 0.0416667 55.845 1.78541e-07 
492 1 0.178648 0.178601 0.0832917 55.845 -2.7325e-07 
493 1 0.214286 0.178571 0.0416667 55.845 -9.39632e-09 
494 1 0.214414 0.214247 0.0830556 55.845 -1.66673e-07 
495 1 0.25 0.214286 0.0416667 55.845 4.217e-07 
504 1 0.214224 0.142847 0.0834389 55.845 -1.13376e-07 
505 1 0.25 0.142857 0.0416667 55.845 7.96362e-08 
506 1 0.250024 0.178639 0.0834302 55.845 -2.52267e-07 
571 1 0.142857 0.214286 0 55.845 -4.19137e-07 
576 1 0.142857 0.142857 0 55.845 -2.67914e-07 
577 1 0.178571 0.178571 0 55.845 -3.46521e-07 
578 1 0.214286 0.214286 0 55.845 -3.04732e-07 
583 1 0.214286 0.142857 0 55.845 -3.53194e-07 
584 1 0.25 0.178571 0 55.845 -4.77435e-07 
303 1 0.285776 0.178547 0.210073 55.845 -5.23668e-07 
305 1 0.321374 0.21437 0.209917 55.845 -6.3608e-07 
315 1 0.321362 0.142905 0.210104 55.845 -6.34292e-07 
317 1 0.357155 0.178606 0.210081 55.845 -6.15758e-07 
405 1 0.285674 0.178553 0.125983 55.845 -4.65889e-07 
406 1 0.28565 0.214281 0.168281 55.845 8.82812e-07 
407 1 0.321496 0.214386 0.12588 55.845 -5.504e-07 
416 1 0.285666 0.14285 0.168546 55.845 7.78946e-07 
417 1 0.321418 0.142854 0.125911 55.845 -4.46162e-07 
418 1 0.321465 0.178685 0.168519 55.845 8.61969e-07 
419 1 0.357111 0.178561 0.125837 55.845 -4.32698e-07 
420 1 0.357153 0.214372 0.168327 55.845 5.9551e-07 
432 1 0.357081 0.142846 0.16858 55.845 5.82371e-07 
507 1 0.285714 0.178571 0.0416667 55.845 3.74025e-07 
508 1 0.28582 0.214227 0.0833811 55.845 -2.79024e-07 
509 1 0.321429 0.214286 0.0416667 55.845 4.87769e-07 
518 1 0.285746 0.142927 0.0834479 55.845 -2.89718e-08 
519 1 0.321429 0.142857 0.0416667 55.845 4.29845e-07 
520 1 0.321426 0.178564 0.0833622 55.845 -4.55183e-07 
521 1 0.357143 0.178571 0.0416667 55.845 4.36542e-07 
522 1 0.357191 0.214156 0.0834252 55.845 -4.0584e-07 
534 1 0.357141 0.142944 0.083287 55.845 -3.05205e-07 
585 1 0.285714 0.214286 0 55.845 -4.57893e-07 
590 1 0.285714 0.142857 0 55.845 -3.85721e-07 
591 1 0.321429 0.178571 0 55.845 -5.04722e-07 
592 1 0.357143 0.214286 0 55.845 -3.75579e-07 
598 1 0.357143 0.142857 0 55.845 -1.8073e-07 
319 1 0.392842 0.214319 0.20992 55.845 -7.70031e-08 
321 1 0.42847 0.249974 0.210085 55.845 -5.84112e-08 
331 1 0.392862 0.142759 0.210049 55.845 -3.11118e-07 
333 1 0.428548 0.17859 0.210108 55.845 -1.91601e-07 
335 1 0.464264 0.214166 0.210041 55.845 -2.67386e-07 
345 1 0.464197 0.142886 0.209975 55.845 -3.27026e-07 
606 1 0.464286 0.178571 0 55.845 -1.69286e-07 
421 1 0.392874 0.21425 0.125701 55.845 -2.66216e-07 
422 1 0.392892 0.250021 0.168107 55.845 4.7244e-07 
423 1 0.428623 0.249959 0.125908 55.845 3.22775e-08 
433 1 0.392837 0.142907 0.125694 55.845 -3.96782e-07 
434 1 0.392737 0.178548 0.168385 55.845 5.339e-07 
435 1 0.428642 0.178604 0.125741 55.845 -3.52909e-07 
436 1 0.428549 0.214158 0.16831 55.845 6.06986e-07 
437 1 0.46432 0.214377 0.125868 55.845 -4.02248e-07 
605 1 0.428571 0.142857 0 55.845 -4.06711e-08 
446 1 0.428601 0.142866 0.168345 55.845 5.71458e-07 
447 1 0.464294 0.142809 0.125639 55.845 -6.05227e-07 
448 1 0.464235 0.178645 0.168182 55.845 7.492e-07 
523 1 0.392857 0.214286 0.0416667 55.845 2.77754e-07 
524 1 0.392863 0.249958 0.0832335 55.845 -1.231e-07 
525 1 0.428571 0.25 0.0416667 55.845 9.68211e-08 
535 1 0.392857 0.142857 0.0416667 55.845 3.58434e-07 
536 1 0.392811 0.178621 0.083284 55.845 -3.59626e-07 
537 1 0.428571 0.178571 0.0416667 55.845 3.22028e-07 
538 1 0.428588 0.214202 0.0832453 55.845 -2.12888e-07 
539 1 0.464286 0.214286 0.0416667 55.845 4.13622e-07 
548 1 0.428614 0.142858 0.0832116 55.845 -2.35399e-07 
549 1 0.464286 0.142857 0.0416667 55.845 2.82483e-07 
550 1 0.464336 0.178577 0.0834919 55.845 -5.79364e-07 
593 1 0.392857 0.25 0 55.845 -8.08911e-08 
599 1 0.392857 0.178571 0 55.845 -1.29163e-07 
600 1 0.428571 0.214286 0 55.845 -8.29304e-09 
3 1 -4.75299e-05 0.10714 0.464408 55.845 -4.58202e-07 
7 1 6.94396e-06 0.0358019 0.464451 55.845 -2.69316e-07 
8 1 0.0355761 0.0714207 0.464437 55.845 -5.24389e-07 
9 1 0.0713735 0.107101 0.464305 55.845 -6.21788e-07 
13 1 0.0358179 0.000155842 0.46432 55.845 -2.74466e-07 
14 1 0.0713534 0.0358585 0.464291 55.845 -3.41155e-07 
15 1 0.106966 0.071524 0.464511 55.845 -4.95838e-07 
20 1 0.107073 -5.43449e-05 0.464236 55.845 -3.10715e-07 
55 1 4.34464e-05 0.107095 0.377516 55.845 -7.4151e-07 
63 1 7.30302e-05 0.0356801 0.377361 55.845 -3.05891e-07 
64 1 -0.000139662 0.0714238 0.42089 55.845 6.36971e-07 
65 1 0.0357054 0.0715696 0.377413 55.845 -6.72719e-07 
66 1 0.0356355 0.107145 0.420855 55.845 7.85045e-07 
67 1 0.0714368 0.107183 0.377569 55.845 -7.34347e-07 
74 1 -6.17087e-05 2.14724e-05 0.420811 55.845 4.60728e-07 
75 1 0.0357105 -9.74922e-05 0.377403 55.845 -3.47118e-07 
76 1 0.0355649 0.0358442 0.420754 55.845 4.62133e-07 
77 1 0.0712872 0.0356313 0.377401 55.845 -4.56398e-07 
78 1 0.0713535 0.0715493 0.420895 55.845 4.67784e-07 
79 1 0.107076 0.0715115 0.377655 55.845 -5.4105e-07 
80 1 0.107122 0.107179 0.420877 55.845 9.07655e-07 
88 1 0.071273 4.35225e-06 0.420884 55.845 2.37264e-07 
89 1 0.10702 9.41986e-06 0.377602 55.845 -4.20029e-07 
90 1 0.107033 0.0357972 0.420725 55.845 2.83289e-07 
157 1 -8.25364e-05 0.107147 0.293695 55.845 -1.3693e-07 
165 1 -7.42553e-05 0.0357933 0.293912 55.845 -4.27659e-07 
166 1 1.02759e-05 0.0714097 0.335006 55.845 1.62012e-07 
167 1 0.0356453 0.0714799 0.29373 55.845 -3.80568e-07 
168 1 0.0357692 0.107121 0.335191 55.845 3.47577e-08 
169 1 0.071409 0.107135 0.29384 55.845 -2.32673e-08 
176 1 1.41252e-05 -3.05801e-05 0.335185 55.845 2.83036e-07 
177 1 0.0356692 5.54447e-06 0.294112 55.845 -5.47322e-07 
178 1 0.0356669 0.0357803 0.335041 55.845 1.94967e-07 
179 1 0.0714491 0.0357189 0.294033 55.845 -6.72136e-07 
180 1 0.0714808 0.0713114 0.33523 55.845 1.92602e-07 
181 1 0.107083 0.0714294 0.293631 55.845 -2.91975e-07 
182 1 0.107119 0.107139 0.335203 55.845 3.27881e-07 
190 1 0.0714388 -0.000102865 0.335056 55.845 4.68137e-07 
191 1 0.107054 5.73473e-05 0.293822 55.845 -5.28501e-07 
192 1 0.107201 0.0358222 0.335252 55.845 3.61477e-07 
268 1 1.37335e-06 0.0713585 0.251949 55.845 2.33649e-07 
270 1 0.0356925 0.107153 0.251749 55.845 8.96021e-08 
278 1 -2.32294e-05 -1.72861e-06 0.2519 55.845 4.12658e-07 
280 1 0.0358331 0.0357421 0.252043 55.845 4.27043e-07 
282 1 0.0713157 0.0714874 0.251888 55.845 2.67754e-07 
284 1 0.107136 0.107125 0.251825 55.845 2.6333e-07 
292 1 0.0714069 3.35624e-05 0.251885 55.845 5.75034e-07 
294 1 0.107155 0.0357536 0.251968 55.845 5.61993e-07 
16 1 0.142853 0.107203 0.464263 55.845 -3.99815e-07 
21 1 0.142746 0.0358566 0.464535 55.845 -4.77816e-07 
22 1 0.178559 0.0713191 0.464513 55.845 -5.09995e-07 
23 1 0.214367 0.10711 0.464402 55.845 -4.58346e-07 
27 1 0.178615 -5.00909e-05 0.464341 55.845 -5.18664e-07 
28 1 0.214244 0.0356647 0.464515 55.845 -5.50571e-07 
29 1 0.249985 0.0713095 0.464316 55.845 -5.13044e-07 
81 1 0.14288 0.107098 0.377432 55.845 -5.68164e-07 
91 1 0.142911 0.035718 0.377621 55.845 -5.53626e-07 
92 1 0.142767 0.0714565 0.421113 55.845 5.72123e-07 
93 1 0.178456 0.0714258 0.377796 55.845 -5.06533e-07 
94 1 0.178579 0.107195 0.421008 55.845 4.99679e-07 
95 1 0.214277 0.107003 0.377654 55.845 -3.40738e-07 
102 1 0.142774 5.10984e-05 0.420829 55.845 4.30837e-07 
103 1 0.178489 -4.52485e-05 0.377484 55.845 -7.63812e-07 
104 1 0.178505 0.0357228 0.420967 55.845 5.31753e-07 
105 1 0.214088 0.0357546 0.37756 55.845 -5.81916e-07 
106 1 0.214268 0.0714002 0.421151 55.845 4.95188e-07 
107 1 0.249819 0.0714892 0.377509 55.845 -5.06703e-07 
108 1 0.24992 0.107034 0.420919 55.845 3.45271e-07 
118 1 0.214255 8.69634e-06 0.420982 55.845 7.71371e-07 
120 1 0.250003 0.0356549 0.420846 55.845 4.96342e-07 
183 1 0.142996 0.107233 0.293859 55.845 -1.7784e-07 
193 1 0.142867 0.0356865 0.29386 55.845 -3.62801e-07 
194 1 0.142799 0.0715187 0.335096 55.845 3.13553e-07 
195 1 0.178412 0.0713921 0.293709 55.845 -3.25819e-07 
196 1 0.178588 0.107082 0.335028 55.845 3.21059e-07 
197 1 0.21425 0.107039 0.293624 55.845 -4.37193e-07 
204 1 0.142857 -3.03817e-05 0.335169 55.845 2.21542e-07 
205 1 0.178572 0.000119069 0.293661 55.845 -1.82273e-07 
206 1 0.178597 0.0358314 0.33518 55.845 2.4239e-07 
207 1 0.214153 0.035641 0.293658 55.845 -2.02671e-07 
208 1 0.214091 0.0714301 0.335249 55.845 8.7579e-08 
209 1 0.249804 0.0715565 0.293616 55.845 -3.82551e-07 
210 1 0.249996 0.107102 0.335127 55.845 4.38534e-07 
220 1 0.214303 0.000144078 0.334959 55.845 5.88353e-08 
222 1 0.249898 0.0358106 0.335047 55.845 7.04888e-08 
296 1 0.142755 0.0714135 0.251905 55.845 3.96121e-07 
298 1 0.178611 0.107079 0.251684 55.845 2.33834e-07 
306 1 0.142822 3.71658e-06 0.251877 55.845 4.7787e-07 
308 1 0.178419 0.0358265 0.251657 55.845 2.47478e-07 
310 1 0.214163 0.0714172 0.251725 55.845 3.53459e-07 
312 1 0.249985 0.107188 0.251932 55.845 3.58126e-07 
322 1 0.21427 -1.73589e-05 0.251683 55.845 1.99707e-07 
324 1 0.249972 0.0357969 0.251836 55.845 1.57312e-07 
30 1 0.285707 0.107181 0.464365 55.845 -4.86399e-07 
35 1 0.250115 -3.62677e-05 0.464317 55.845 -3.86767e-07 
36 1 0.285693 0.0356694 0.46438 55.845 -5.94278e-07 
37 1 0.321407 0.0714435 0.464435 55.845 -6.99151e-07 
38 1 0.357071 0.107199 0.464272 55.845 -6.7753e-07 
42 1 0.321375 -0.000121934 0.46443 55.845 -6.05534e-07 
43 1 0.357103 0.03578 0.464533 55.845 -8.58967e-07 
109 1 0.285726 0.107071 0.377462 55.845 -4.77223e-07 
119 1 0.249918 6.89139e-05 0.377484 55.845 -5.50986e-07 
121 1 0.285649 0.0357353 0.377555 55.845 -7.96075e-07 
122 1 0.28567 0.0714237 0.42096 55.845 6.0404e-07 
123 1 0.32142 0.0713649 0.377551 55.845 -8.61149e-07 
124 1 0.321414 0.10717 0.420723 55.845 6.42954e-07 
125 1 0.357038 0.107176 0.37746 55.845 -7.48644e-07 
133 1 0.321406 -6.09898e-05 0.37764 55.845 -7.60326e-07 
134 1 0.321416 0.0356489 0.420934 55.845 6.62249e-07 
135 1 0.357077 0.0356091 0.377628 55.845 -9.63805e-07 
136 1 0.357107 0.0715463 0.420884 55.845 8.24651e-07 
211 1 0.28573 0.107166 0.293724 55.845 -3.44061e-07 
221 1 0.249955 0.00015412 0.293699 55.845 -2.08762e-07 
223 1 0.285615 0.0357053 0.293761 55.845 -4.78988e-07 
224 1 0.285545 0.0713844 0.335048 55.845 2.22307e-07 
225 1 0.321354 0.0714456 0.293871 55.845 -4.93962e-07 
226 1 0.321342 0.107137 0.335061 55.845 4.02443e-07 
227 1 0.357096 0.107137 0.293919 55.845 -4.27004e-07 
235 1 0.321416 -1.26194e-05 0.293832 55.845 -4.77029e-07 
236 1 0.321305 0.0356469 0.335203 55.845 2.45695e-07 
237 1 0.35712 0.0357109 0.293897 55.845 -1.46476e-07 
238 1 0.357111 0.0714247 0.334982 55.845 4.885e-07 
326 1 0.285653 0.0714296 0.252091 55.845 2.13773e-07 
328 1 0.321436 0.107184 0.251986 55.845 4.09657e-07 
338 1 0.321477 0.0357736 0.251939 55.845 3.5356e-08 
340 1 0.35714 0.0714272 0.251951 55.845 3.29322e-07 
44 1 0.392861 0.0714282 0.464345 55.845 -5.99512e-07 
45 1 0.428637 0.107128 0.464447 55.845 -2.20836e-07 
47 1 0.392794 -2.05996e-05 0.464466 55.845 -7.73501e-07 
48 1 0.428513 0.0356652 0.464515 55.845 -4.05563e-07 
49 1 0.464365 0.0715363 0.464314 55.845 -1.29491e-07 
50 1 0.464307 8.70108e-05 0.464313 55.845 -3.39172e-07 
137 1 0.392862 0.0713441 0.377592 55.845 -5.97977e-07 
138 1 0.392892 0.107268 0.420869 55.845 6.53893e-07 
139 1 0.428403 0.10715 0.377695 55.845 -5.85556e-07 
144 1 0.39275 -7.05477e-05 0.377757 55.845 -6.74037e-07 
145 1 0.392695 0.0357502 0.420983 55.845 8.01977e-07 
146 1 0.428713 0.0357787 0.377806 55.845 -5.66405e-07 
147 1 0.428591 0.0715286 0.421098 55.845 2.45439e-07 
148 1 0.464289 0.0715144 0.377524 55.845 -3.62954e-07 
149 1 0.464229 0.107176 0.42096 55.845 3.41171e-07 
150 1 0.428508 -1.96831e-05 0.420933 55.845 5.61853e-07 
151 1 0.464224 0.000115337 0.377476 55.845 -3.15631e-07 
152 1 0.4643 0.035792 0.420854 55.845 1.34704e-08 
239 1 0.392885 0.0714693 0.293961 55.845 -3.72611e-07 
240 1 0.392869 0.107199 0.335195 55.845 5.05901e-07 
241 1 0.428577 0.107079 0.293948 55.845 -3.58562e-07 
246 1 0.392786 9.81264e-05 0.293932 55.845 -1.10914e-07 
247 1 0.392939 0.0358292 0.335298 55.845 4.25969e-07 
248 1 0.428558 0.0357369 0.294006 55.845 -4.44163e-07 
249 1 0.428622 0.0714781 0.335261 55.845 5.09326e-07 
250 1 0.464267 0.0714565 0.293739 55.845 -7.15347e-07 
251 1 0.464182 0.107226 0.33504 55.845 2.14063e-07 
252 1 0.428438 -5.60625e-05 0.335045 55.845 2.90528e-07 
253 1 0.464195 4.22639e-05 0.293667 55.845 -7.01939e-07 
254 1 0.464216 0.03583 0.334955 55.845 1.5436e-07 
342 1 0.392855 0.107161 0.251899 55.845 5.90361e-07 
349 1 0.392845 0.0357735 0.251878 55.845 2.71444e-07 
351 1 0.428615 0.0714371 0.251797 55.845 6.01446e-07 
353 1 0.464211 0.107195 0.2519 55.845 4.66702e-07 
354 1 0.428522 4.53933e-05 0.251871 55.845 3.22877e-07 
356 1 0.464197 0.0357134 0.251757 55.845 4.50705e-07 
1 1 -0.00010752 0.178456 0.464559 55.845 -1.06274e-07 
2 1 0.0357131 0.21419 0.464608 55.845 -2.63423e-07 
4 1 0.035589 0.142743 0.464332 55.845 -6.08391e-07 
5 1 0.0712792 0.178513 0.464384 55.845 -4.44423e-07 
6 1 0.107125 0.214275 0.464398 55.845 -5.37172e-07 
10 1 0.107014 0.14295 0.464381 55.845 -4.90397e-07 
51 1 -5.97222e-05 0.178618 0.377658 55.845 -4.5076e-07 
52 1 4.9872e-06 0.214188 0.421084 55.845 1.44369e-07 
53 1 0.0356111 0.214255 0.377593 55.845 -6.69842e-07 
54 1 0.0356736 0.249986 0.421027 55.845 4.94305e-07 
56 1 -0.000153575 0.142832 0.420872 55.845 4.58081e-07 
57 1 0.0356098 0.14285 0.377395 55.845 -6.82296e-07 
58 1 0.0356989 0.178435 0.420893 55.845 4.43486e-07 
59 1 0.071357 0.178532 0.377616 55.845 -7.92629e-07 
60 1 0.0713132 0.214276 0.420876 55.845 6.45276e-07 
61 1 0.107005 0.214264 0.37761 55.845 -7.31884e-07 
62 1 0.107018 0.250043 0.420964 55.845 6.83428e-07 
68 1 0.071324 0.142741 0.420928 55.845 7.94925e-07 
69 1 0.107047 0.142861 0.377541 55.845 -6.19774e-07 
70 1 0.107082 0.178563 0.420708 55.845 7.57611e-07 
153 1 3.55153e-05 0.178595 0.293879 55.845 -2.63861e-07 
154 1 -5.61953e-05 0.21427 0.335239 55.845 2.51395e-07 
155 1 0.0356892 0.214356 0.29359 55.845 -1.83564e-07 
156 1 0.0357864 0.249945 0.335135 55.845 -1.52165e-08 
158 1 -8.14723e-05 0.142808 0.335131 55.845 6.72904e-08 
159 1 0.0356595 0.142885 0.293818 55.845 2.25714e-08 
160 1 0.0357035 0.178528 0.335072 55.845 3.15651e-07 
161 1 0.0714507 0.178576 0.293696 55.845 -5.96863e-08 
162 1 0.0713747 0.214215 0.335181 55.845 -2.41011e-08 
163 1 0.106973 0.214276 0.293869 55.845 -4.41735e-09 
164 1 0.107034 0.249911 0.335085 55.845 2.11379e-07 
170 1 0.0714656 0.142874 0.334965 55.845 1.70231e-07 
171 1 0.107208 0.142929 0.293805 55.845 -1.60368e-08 
172 1 0.107092 0.178608 0.335267 55.845 3.36091e-07 
256 1 -3.72476e-05 0.214321 0.251947 55.845 4.37938e-07 
258 1 0.0355863 0.250032 0.251974 55.845 -3.23052e-08 
260 1 -2.4096e-05 0.142869 0.251895 55.845 4.31712e-07 
262 1 0.0356212 0.17866 0.252043 55.845 1.44372e-07 
264 1 0.071367 0.214266 0.251994 55.845 -1.14434e-07 
266 1 0.107115 0.250031 0.25185 55.845 1.07165e-08 
272 1 0.0714592 0.142887 0.251904 55.845 2.12558e-07 
274 1 0.107254 0.178561 0.252085 55.845 -1.83284e-08 
11 1 0.14275 0.178577 0.464422 55.845 -4.59955e-07 
12 1 0.178563 0.214328 0.464563 55.845 -7.24099e-07 
17 1 0.178556 0.142938 0.464476 55.845 -5.45243e-07 
18 1 0.214272 0.178643 0.464382 55.845 -4.87908e-07 
19 1 0.249977 0.214298 0.464151 55.845 -5.0544e-07 
24 1 0.249947 0.142785 0.464338 55.845 -3.48824e-07 
71 1 0.142797 0.178563 0.37734 55.845 -6.72002e-07 
72 1 0.142827 0.214323 0.421014 55.845 6.29557e-07 
73 1 0.17856 0.214286 0.377401 55.845 -3.82084e-07 
82 1 0.142806 0.142818 0.420795 55.845 7.45306e-07 
83 1 0.178551 0.142866 0.377524 55.845 -4.55818e-07 
84 1 0.178424 0.178675 0.421005 55.845 4.65027e-07 
85 1 0.214234 0.178524 0.377415 55.845 -4.7145e-07 
86 1 0.214284 0.214295 0.420776 55.845 5.71733e-07 
87 1 0.249878 0.214448 0.377608 55.845 -5.41041e-07 
96 1 0.214295 0.14283 0.420878 55.845 3.51395e-07 
97 1 0.249978 0.142754 0.377579 55.845 -3.11942e-07 
98 1 0.250021 0.178578 0.420859 55.845 5.70483e-07 
173 1 0.142861 0.178621 0.293848 55.845 -1.48345e-07 
174 1 0.142789 0.21437 0.335024 55.845 2.60373e-07 
175 1 0.178572 0.214306 0.293946 55.845 -1.31891e-07 
184 1 0.142896 0.142886 0.335091 55.845 3.04115e-07 
185 1 0.178668 0.142797 0.293903 55.845 -4.45908e-07 
186 1 0.178524 0.178537 0.335128 55.845 2.77144e-07 
187 1 0.214344 0.178659 0.293912 55.845 -3.24688e-07 
188 1 0.214344 0.21431 0.335174 55.845 2.68185e-07 
189 1 0.250042 0.214278 0.293875 55.845 -1.08117e-07 
198 1 0.214289 0.142723 0.335079 55.845 2.43633e-07 
199 1 0.249987 0.142828 0.293698 55.845 -2.15157e-07 
200 1 0.250062 0.178495 0.335225 55.845 4.16099e-07 
276 1 0.142816 0.214362 0.252026 55.845 1.30046e-07 
286 1 0.142923 0.142733 0.251921 55.845 1.80591e-07 
288 1 0.178384 0.178612 0.251742 55.845 1.18288e-07 
290 1 0.214319 0.214284 0.251824 55.845 1.81993e-07 
300 1 0.214222 0.142862 0.252029 55.845 3.63056e-07 
302 1 0.250043 0.178607 0.252063 55.845 9.29339e-08 
25 1 0.28565 0.178573 0.464181 55.845 -6.23306e-07 
26 1 0.321411 0.214283 0.464202 55.845 -8.5065e-07 
31 1 0.321373 0.142842 0.46425 55.845 -6.05669e-07 
32 1 0.35708 0.17862 0.4641 55.845 -7.58747e-07 
99 1 0.285614 0.178507 0.377472 55.845 -6.59629e-07 
100 1 0.28558 0.214253 0.420679 55.845 9.74781e-07 
101 1 0.32144 0.214322 0.377459 55.845 -8.02952e-07 
110 1 0.285802 0.142779 0.421043 55.845 7.14796e-07 
111 1 0.321403 0.142952 0.377471 55.845 -7.34698e-07 
112 1 0.321329 0.178513 0.420959 55.845 8.4377e-07 
113 1 0.357061 0.178684 0.377313 55.845 -9.40276e-07 
114 1 0.357001 0.214416 0.420957 55.845 8.88589e-07 
126 1 0.357127 0.143 0.420721 55.845 7.29061e-07 
201 1 0.285668 0.178535 0.293686 55.845 -7.94363e-08 
202 1 0.285791 0.214343 0.334983 55.845 5.87951e-08 
203 1 0.321415 0.214385 0.293526 55.845 -1.29651e-07 
212 1 0.285673 0.142761 0.335218 55.845 3.11321e-07 
213 1 0.321435 0.142923 0.294033 55.845 -3.58665e-07 
214 1 0.321246 0.178693 0.33503 55.845 1.2914e-07 