ITEM: TIMESTEP
5800
ITEM: NUMBER OF ATOMS
5880
ITEM: BOX BOUNDS pp pp ff
-27.9107 27.9107
-27.9107 27.9107
0 34.092
ITEM: ATOMS id type xs ys zs mass q 
259 1 -1.93367e-05 0.107173 0.209404 55.845 -1.80894e-07 
267 1 -1.52836e-05 0.0356843 0.209609 55.845 -2.99934e-07 
269 1 0.0356383 0.0714757 0.209691 55.845 -5.04462e-07 
271 1 0.0713842 0.107137 0.20951 55.845 -3.83076e-07 
279 1 0.0356648 3.99443e-05 0.209514 55.845 -3.96773e-07 
281 1 0.0713665 0.0357002 0.209535 55.845 -4.174e-07 
283 1 0.107101 0.0714946 0.209388 55.845 -4.21006e-07 
293 1 0.10708 6.57969e-05 0.209622 55.845 -3.19952e-07 
361 1 -4.72936e-05 0.107148 0.124715 55.845 -8.23654e-07 
369 1 -5.23663e-05 0.0357432 0.124725 55.845 -1.09278e-06 
370 1 -3.55395e-05 0.0714814 0.167615 55.845 6.65897e-07 
371 1 0.0356537 0.0714136 0.124894 55.845 -1.02451e-06 
372 1 0.0357913 0.107203 0.167371 55.845 7.60059e-07 
373 1 0.0715002 0.107183 0.12478 55.845 -1.17922e-06 
380 1 5.05119e-05 -4.1936e-06 0.167578 55.845 7.64524e-07 
381 1 0.0357082 -1.72948e-05 0.124918 55.845 -1.04658e-06 
382 1 0.0355505 0.0357194 0.167554 55.845 8.05536e-07 
383 1 0.0712593 0.0357983 0.124836 55.845 -1.10647e-06 
384 1 0.0713854 0.0714176 0.167389 55.845 1.01298e-06 
385 1 0.107177 0.0714447 0.124872 55.845 -1.29318e-06 
386 1 0.107098 0.107148 0.167402 55.845 1.07227e-06 
394 1 0.0714926 2.4764e-05 0.167239 55.845 7.16464e-07 
395 1 0.107131 6.47401e-05 0.124687 55.845 -1.04773e-06 
396 1 0.107007 0.0357281 0.167424 55.845 9.46971e-07 
463 1 0 0.107143 0.0416667 55.845 -4.0856e-07 
471 1 0 0.0357143 0.0416667 55.845 -5.32716e-07 
472 1 4.72266e-05 0.0714167 0.083082 55.845 1.20219e-06 
473 1 0.0357143 0.0714286 0.0416667 55.845 -3.69921e-07 
474 1 0.035676 0.107146 0.0830435 55.845 9.43277e-07 
475 1 0.0714286 0.107143 0.0416667 55.845 -3.54878e-07 
482 1 -6.06636e-05 1.56531e-05 0.0832514 55.845 9.20653e-07 
483 1 0.0357143 0 0.0416667 55.845 -4.64826e-07 
484 1 0.0356873 0.0356605 0.0829586 55.845 1.00654e-06 
485 1 0.0714286 0.0357143 0.0416667 55.845 -4.52263e-07 
486 1 0.0714233 0.0714139 0.0830336 55.845 8.87957e-07 
487 1 0.107143 0.0714286 0.0416667 55.845 -4.63788e-07 
488 1 0.10707 0.107093 0.0832077 55.845 9.06563e-07 
496 1 0.0714117 6.60063e-06 0.0831971 55.845 9.46992e-07 
497 1 0.107143 0 0.0416667 55.845 -4.17188e-07 
498 1 0.107069 0.0357381 0.0830928 55.845 9.71444e-07 
567 1 0 0.0714286 0 55.845 3.23782e-07 
568 1 0.0357143 0.107143 0 55.845 1.95335e-07 
572 1 0 0 0 55.845 3.61651e-08 
573 1 0.0357143 0.0357143 0 55.845 1.67869e-07 
574 1 0.0714286 0.0714286 0 55.845 1.01534e-07 
575 1 0.107143 0.107143 0 55.845 1.01914e-07 
579 1 0.0714286 0 0 55.845 2.30692e-07 
580 1 0.107143 0.0357143 0 55.845 1.61217e-07 
285 1 0.142856 0.107105 0.209397 55.845 -3.14883e-07 
295 1 0.142768 0.0357168 0.20941 55.845 -3.10262e-07 
297 1 0.178516 0.0714474 0.209566 55.845 -3.31937e-07 
299 1 0.214251 0.107141 0.209424 55.845 -1.35633e-07 
307 1 0.178476 4.90408e-05 0.20946 55.845 -1.74572e-07 
309 1 0.214236 0.0357113 0.209421 55.845 -2.05532e-07 
311 1 0.249966 0.0715231 0.209327 55.845 -2.13178e-07 
387 1 0.142893 0.107232 0.124907 55.845 -1.25881e-06 
397 1 0.142801 0.035746 0.124858 55.845 -1.09067e-06 
398 1 0.142813 0.0714656 0.167285 55.845 9.41908e-07 
399 1 0.178599 0.0714609 0.124937 55.845 -1.05302e-06 
400 1 0.178642 0.107168 0.167406 55.845 7.38031e-07 
401 1 0.214374 0.10716 0.124769 55.845 -8.33859e-07 
408 1 0.142762 5.8769e-06 0.167395 55.845 7.1463e-07 
409 1 0.178492 8.66922e-05 0.124751 55.845 -1.07114e-06 
410 1 0.178497 0.0357568 0.167357 55.845 8.37033e-07 
411 1 0.214288 0.0357578 0.124708 55.845 -1.01221e-06 
412 1 0.214167 0.07146 0.167356 55.845 7.40536e-07 
413 1 0.250059 0.0715109 0.124784 55.845 -8.07175e-07 
414 1 0.250008 0.107198 0.167421 55.845 5.38168e-07 
424 1 0.21427 8.69239e-05 0.167341 55.845 7.3751e-07 
426 1 0.249989 0.035791 0.167469 55.845 7.72455e-07 
489 1 0.142857 0.107143 0.0416667 55.845 -4.91149e-07 
499 1 0.142857 0.0357143 0.0416667 55.845 -4.90642e-07 
500 1 0.142814 0.0715098 0.0831033 55.845 9.71958e-07 
501 1 0.178571 0.0714286 0.0416667 55.845 -5.63218e-07 
502 1 0.178474 0.10723 0.0830549 55.845 1.05604e-06 
503 1 0.214286 0.107143 0.0416667 55.845 -3.44178e-07 
510 1 0.142822 1.45404e-05 0.0831501 55.845 1.16448e-06 
511 1 0.178571 0 0.0416667 55.845 -5.21039e-07 
512 1 0.178504 0.0357928 0.08307 55.845 9.77311e-07 
513 1 0.214286 0.0357143 0.0416667 55.845 -4.8596e-07 
514 1 0.214277 0.0714324 0.0830067 55.845 8.98273e-07 
515 1 0.25 0.0714286 0.0416667 55.845 -2.07254e-07 
516 1 0.250063 0.107132 0.0829856 55.845 8.19851e-07 
526 1 0.21433 7.70874e-05 0.0830007 55.845 8.16859e-07 
528 1 0.249984 0.0356763 0.0831039 55.845 8.02049e-07 
581 1 0.142857 0.0714286 0 55.845 7.51602e-08 
582 1 0.178571 0.107143 0 55.845 2.54704e-07 
586 1 0.142857 0 0 55.845 2.65822e-07 
587 1 0.178571 0.0357143 0 55.845 2.43511e-07 
588 1 0.214286 0.0714286 0 55.845 1.904e-07 
589 1 0.25 0.107143 0 55.845 1.2151e-07 
594 1 0.214286 0 0 55.845 2.1591e-07 
595 1 0.25 0.0357143 0 55.845 2.01219e-07 
313 1 0.285703 0.107154 0.209601 55.845 4.16319e-08 
323 1 0.249918 -1.78672e-06 0.209517 55.845 -1.76106e-07 
325 1 0.285752 0.035677 0.20946 55.845 -2.83361e-07 
327 1 0.321418 0.0713738 0.209421 55.845 -8.15691e-08 
329 1 0.357139 0.107116 0.209404 55.845 4.48034e-08 
337 1 0.321484 3.76378e-05 0.209443 55.845 -3.71982e-08 
339 1 0.357285 0.0356756 0.20937 55.845 -6.05038e-08 
415 1 0.285742 0.107132 0.124892 55.845 -8.32058e-07 
425 1 0.250069 2.61765e-06 0.12484 55.845 -8.78055e-07 
427 1 0.285771 0.0357537 0.124679 55.845 -8.46932e-07 
428 1 0.285735 0.0714362 0.167418 55.845 7.24347e-07 
429 1 0.321391 0.0714427 0.124631 55.845 -9.2985e-07 
430 1 0.321438 0.107076 0.167396 55.845 6.08702e-07 
431 1 0.357063 0.107083 0.12478 55.845 -1.02619e-06 
439 1 0.321434 4.96534e-05 0.124825 55.845 -8.28052e-07 
440 1 0.321491 0.035707 0.16743 55.845 7.68233e-07 
441 1 0.357238 0.0357695 0.124774 55.845 -8.92493e-07 
442 1 0.357155 0.0714275 0.167387 55.845 8.14839e-07 
517 1 0.285714 0.107143 0.0416667 55.845 -3.6531e-07 
527 1 0.25 0 0.0416667 55.845 -4.58598e-07 
529 1 0.285714 0.0357143 0.0416667 55.845 -1.81339e-07 
530 1 0.285711 0.0714557 0.0829079 55.845 8.95347e-07 
531 1 0.321429 0.0714286 0.0416667 55.845 -3.54085e-07 
532 1 0.321424 0.107143 0.0832556 55.845 9.75514e-07 
533 1 0.357143 0.107143 0.0416667 55.845 -5.62716e-07 
603 1 0.357143 0.0714286 0 55.845 5.52187e-08 
541 1 0.321429 0 0.0416667 55.845 -3.57818e-07 
542 1 0.321429 0.0357826 0.082979 55.845 9.04316e-07 
543 1 0.357143 0.0357143 0.0416667 55.845 -3.6969e-07 
544 1 0.357135 0.0714016 0.0829779 55.845 9.75412e-07 
602 1 0.321429 0.0357143 0 55.845 9.13275e-08 
596 1 0.285714 0.0714286 0 55.845 1.87166e-07 
597 1 0.321429 0.107143 0 55.845 2.31823e-07 
612 1 0.464286 0.0357143 0 55.845 3.01268e-08 
611 1 0.428571 0 0 55.845 3.73603e-08 
610 1 0.464286 0.107143 0 55.845 1.40902e-07 
609 1 0.428571 0.0714286 0 55.845 3.04354e-08 
608 1 0.392857 0.0357143 0 55.845 6.83803e-08 
341 1 0.392843 0.0714509 0.209505 55.845 -3.23909e-08 
343 1 0.428636 0.107153 0.20927 55.845 -9.73699e-08 
348 1 0.392925 8.24095e-05 0.20937 55.845 -2.43028e-08 
350 1 0.428675 0.0357856 0.209324 55.845 6.65712e-08 
352 1 0.464319 0.0714464 0.209338 55.845 -7.36836e-08 
355 1 0.464305 3.97668e-05 0.209429 55.845 -1.8172e-08 
443 1 0.392868 0.0714189 0.124795 55.845 -1.0245e-06 
444 1 0.392854 0.107097 0.167405 55.845 6.77691e-07 
445 1 0.42853 0.107019 0.124722 55.845 -9.90554e-07 
604 1 0.392857 0.107143 0 55.845 2.03706e-07 
450 1 0.392893 4.68539e-05 0.12483 55.845 -7.32457e-07 
451 1 0.392982 0.0357681 0.167368 55.845 6.15443e-07 
452 1 0.428548 0.0356708 0.124844 55.845 -8.13909e-07 
453 1 0.428602 0.07134 0.1672 55.845 5.7957e-07 
454 1 0.464189 0.0714298 0.124745 55.845 -7.01403e-07 
455 1 0.464294 0.107165 0.167244 55.845 4.79556e-07 
456 1 0.428643 4.39887e-05 0.167405 55.845 4.8663e-07 
457 1 0.46426 7.87709e-06 0.12474 55.845 -6.16108e-07 
458 1 0.464341 0.0356433 0.167333 55.845 5.44997e-07 
545 1 0.392857 0.0714286 0.0416667 55.845 -5.77088e-07 
546 1 0.392853 0.107101 0.0830693 55.845 1.19538e-06 
547 1 0.428571 0.107143 0.0416667 55.845 -4.38423e-07 
552 1 0.392857 0 0.0416667 55.845 -2.53226e-07 
553 1 0.392854 0.0356811 0.0830885 55.845 6.89737e-07 
554 1 0.428571 0.0357143 0.0416667 55.845 -3.58705e-07 
555 1 0.42854 0.0714213 0.0829824 55.845 5.85695e-07 
556 1 0.464286 0.0714286 0.0416667 55.845 -1.42973e-07 
557 1 0.464344 0.107185 0.0831057 55.845 6.87612e-07 
558 1 0.428617 -3.599e-05 0.0830781 55.845 6.50927e-07 
559 1 0.464286 0 0.0416667 55.845 -1.32704e-07 
560 1 0.464286 0.0356935 0.0830141 55.845 4.66549e-07 
255 1 -2.79022e-05 0.178466 0.209501 55.845 1.97898e-07 
257 1 0.0357439 0.214215 0.209412 55.845 1.42866e-07 
261 1 0.0357027 0.142854 0.209516 55.845 -9.2306e-08 
263 1 0.0713766 0.178529 0.209424 55.845 -1.71816e-07 
265 1 0.107096 0.21429 0.209409 55.845 -2.60773e-09 
273 1 0.107024 0.142879 0.209516 55.845 -3.64923e-07 
357 1 1.47814e-05 0.178635 0.124731 55.845 -8.87811e-07 
358 1 2.89641e-05 0.214202 0.167513 55.845 4.16461e-07 
359 1 0.035639 0.214362 0.124797 55.845 -7.91451e-07 
360 1 0.0356816 0.250048 0.167555 55.845 5.59722e-07 
362 1 1.59115e-05 0.142849 0.167211 55.845 4.50893e-07 
363 1 0.0357419 0.142896 0.124715 55.845 -9.53598e-07 
364 1 0.0356381 0.178512 0.167323 55.845 5.5138e-07 
365 1 0.0714154 0.178538 0.124708 55.845 -8.77401e-07 
366 1 0.0713816 0.214276 0.167369 55.845 5.26529e-07 
367 1 0.10714 0.214311 0.124911 55.845 -8.43697e-07 
368 1 0.107104 0.250038 0.167352 55.845 6.00023e-07 
374 1 0.0713745 0.142865 0.167411 55.845 7.82142e-07 
375 1 0.107074 0.142838 0.124853 55.845 -1.01317e-06 
376 1 0.107169 0.178544 0.167317 55.845 6.73695e-07 
459 1 0 0.178571 0.0416667 55.845 -8.25437e-07 
460 1 2.77257e-05 0.214319 0.0830986 55.845 8.95383e-07 
461 1 0.0357143 0.214286 0.0416667 55.845 -3.78409e-07 
462 1 0.0357272 0.249996 0.0831341 55.845 8.48549e-07 
464 1 -4.53271e-05 0.142823 0.0830659 55.845 8.81655e-07 
465 1 0.0357143 0.142857 0.0416667 55.845 -5.71571e-07 
466 1 0.0356867 0.17853 0.0830671 55.845 6.85996e-07 
467 1 0.0714286 0.178571 0.0416667 55.845 -2.90674e-07 
468 1 0.0713586 0.214305 0.0833554 55.845 9.42122e-07 
469 1 0.107143 0.214286 0.0416667 55.845 -3.20153e-07 
470 1 0.107108 0.250006 0.0830796 55.845 6.82514e-07 
476 1 0.0713851 0.14283 0.0830756 55.845 7.81186e-07 
477 1 0.107143 0.142857 0.0416667 55.845 -2.97173e-07 
478 1 0.107175 0.1786 0.0832613 55.845 9.67973e-07 
561 1 0 0.214286 0 55.845 1.22049e-07 
562 1 0.0357143 0.25 0 55.845 2.43047e-07 
563 1 0 0.142857 0 55.845 2.2077e-07 
564 1 0.0357143 0.178571 0 55.845 1.25631e-07 
565 1 0.0714286 0.214286 0 55.845 2.19882e-07 
566 1 0.107143 0.25 0 55.845 1.79928e-07 
569 1 0.0714286 0.142857 0 55.845 4.80669e-08 
570 1 0.107143 0.178571 0 55.845 1.92417e-07 
275 1 0.142823 0.178515 0.209482 55.845 -4.84415e-08 
277 1 0.17843 0.214227 0.209313 55.845 1.94322e-07 
287 1 0.178552 0.142923 0.209575 55.845 -1.12691e-08 
289 1 0.214422 0.178571 0.209437 55.845 2.19324e-07 
291 1 0.24998 0.214362 0.209514 55.845 -1.45379e-08 
301 1 0.250055 0.142891 0.209523 55.845 1.28522e-07 
377 1 0.142834 0.178559 0.124711 55.845 -8.27708e-07 
378 1 0.142816 0.214221 0.167253 55.845 5.06792e-07 
379 1 0.178628 0.214238 0.124685 55.845 -6.97086e-07 
388 1 0.142871 0.142823 0.167238 55.845 6.93458e-07 
389 1 0.178704 0.142875 0.124711 55.845 -8.6415e-07 
390 1 0.178634 0.178602 0.16741 55.845 4.88839e-07 
391 1 0.214314 0.178529 0.124797 55.845 -6.05197e-07 
392 1 0.214236 0.214349 0.167437 55.845 4.54791e-07 
393 1 0.249986 0.214369 0.124815 55.845 -4.95384e-07 
402 1 0.214303 0.142772 0.167396 55.845 4.0768e-07 
403 1 0.250024 0.142897 0.124817 55.845 -7.13457e-07 
404 1 0.249994 0.178543 0.167376 55.845 3.51894e-07 
479 1 0.142857 0.178571 0.0416667 55.845 -3.90132e-07 
480 1 0.142853 0.214309 0.083113 55.845 8.34468e-07 
481 1 0.178571 0.214286 0.0416667 55.845 -4.44653e-07 
490 1 0.142844 0.142861 0.082992 55.845 9.8779e-07 
491 1 0.178571 0.142857 0.0416667 55.845 -4.18608e-07 
492 1 0.178581 0.178549 0.0830711 55.845 8.36775e-07 
493 1 0.214286 0.178571 0.0416667 55.845 -4.28305e-07 
494 1 0.214299 0.214313 0.0831159 55.845 6.03566e-07 
495 1 0.25 0.214286 0.0416667 55.845 3.03442e-09 
504 1 0.21439 0.142852 0.0830031 55.845 7.93653e-07 
505 1 0.25 0.142857 0.0416667 55.845 -5.2742e-07 
506 1 0.250012 0.178673 0.0831564 55.845 4.98908e-07 
571 1 0.142857 0.214286 0 55.845 1.71679e-07 
576 1 0.142857 0.142857 0 55.845 2.23663e-07 
577 1 0.178571 0.178571 0 55.845 1.75131e-07 
578 1 0.214286 0.214286 0 55.845 9.38025e-08 
583 1 0.214286 0.142857 0 55.845 1.50874e-07 
584 1 0.25 0.178571 0 55.845 5.8835e-08 
303 1 0.285652 0.178614 0.209578 55.845 -5.52375e-08 
305 1 0.321393 0.214329 0.20939 55.845 -2.86397e-07 
315 1 0.321438 0.142969 0.209412 55.845 6.48821e-09 
317 1 0.357056 0.178527 0.209464 55.845 -2.05484e-07 
405 1 0.285637 0.178545 0.124771 55.845 -6.33315e-07 
406 1 0.285601 0.214304 0.16751 55.845 4.67606e-07 
407 1 0.321321 0.214362 0.124969 55.845 -8.15378e-07 
416 1 0.285739 0.142769 0.167491 55.845 5.82599e-07 
417 1 0.321376 0.142776 0.124916 55.845 -9.19346e-07 
418 1 0.321378 0.17862 0.167355 55.845 5.76284e-07 
419 1 0.357137 0.178474 0.12477 55.845 -1.01989e-06 
420 1 0.35721 0.214232 0.167341 55.845 7.90077e-07 
432 1 0.357151 0.142916 0.167384 55.845 5.35405e-07 
507 1 0.285714 0.178571 0.0416667 55.845 -2.71948e-07 
508 1 0.285685 0.214244 0.0830918 55.845 5.74043e-07 
509 1 0.321429 0.214286 0.0416667 55.845 -4.55105e-07 
518 1 0.285689 0.142856 0.0831191 55.845 7.53953e-07 
519 1 0.321429 0.142857 0.0416667 55.845 -4.39762e-07 
520 1 0.321353 0.178621 0.0829937 55.845 8.18565e-07 
521 1 0.357143 0.178571 0.0416667 55.845 -5.18739e-07 
522 1 0.357124 0.214201 0.0831215 55.845 9.44589e-07 
534 1 0.357088 0.142841 0.0831175 55.845 1.21322e-06 
585 1 0.285714 0.214286 0 55.845 1.88904e-07 
590 1 0.285714 0.142857 0 55.845 6.98115e-08 
591 1 0.321429 0.178571 0 55.845 1.47356e-07 
592 1 0.357143 0.214286 0 55.845 9.54812e-08 
598 1 0.357143 0.142857 0 55.845 3.96531e-07 
319 1 0.392885 0.214328 0.20942 55.845 -3.68502e-07 
321 1 0.428623 0.249912 0.209564 55.845 -4.87181e-07 
331 1 0.392849 0.142902 0.209408 55.845 -1.79863e-07 
333 1 0.428596 0.178581 0.209444 55.845 -4.44045e-07 
335 1 0.464223 0.214298 0.209491 55.845 -5.60208e-07 
345 1 0.464345 0.142761 0.209399 55.845 -2.06596e-07 
606 1 0.464286 0.178571 0 55.845 2.15238e-07 
421 1 0.392882 0.214372 0.124784 55.845 -1.09341e-06 
422 1 0.392855 0.250058 0.167516 55.845 8.84367e-07 
423 1 0.428584 0.249961 0.124823 55.845 -1.19271e-06 
433 1 0.392836 0.142893 0.124789 55.845 -1.03658e-06 
434 1 0.392855 0.178646 0.167311 55.845 6.49531e-07 
435 1 0.428596 0.17855 0.124798 55.845 -9.93035e-07 
436 1 0.428566 0.214204 0.167298 55.845 8.93918e-07 
437 1 0.464315 0.214327 0.12487 55.845 -9.81038e-07 
605 1 0.428571 0.142857 0 55.845 2.84479e-07 
446 1 0.428507 0.142877 0.167339 55.845 6.43903e-07 
447 1 0.464272 0.142847 0.124941 55.845 -8.90251e-07 
448 1 0.46432 0.17858 0.167547 55.845 8.26127e-07 
523 1 0.392857 0.214286 0.0416667 55.845 -5.00055e-07 
524 1 0.392939 0.249927 0.0830528 55.845 7.90672e-07 
525 1 0.428571 0.25 0.0416667 55.845 -5.55199e-07 
535 1 0.392857 0.142857 0.0416667 55.845 -5.33889e-07 
536 1 0.392863 0.178538 0.0829069 55.845 1.15372e-06 
537 1 0.428571 0.178571 0.0416667 55.845 -4.10878e-07 
538 1 0.42857 0.214234 0.0831003 55.845 9.23674e-07 
539 1 0.464286 0.214286 0.0416667 55.845 -3.66708e-07 
548 1 0.428553 0.142832 0.0830848 55.845 1.16592e-06 
549 1 0.464286 0.142857 0.0416667 55.845 -3.95927e-07 
550 1 0.464265 0.178636 0.0830513 55.845 8.64041e-07 
593 1 0.392857 0.25 0 55.845 -3.853e-08 
599 1 0.392857 0.178571 0 55.845 3.83935e-07 
600 1 0.428571 0.214286 0 55.845 2.48528e-07 
3 1 -4.97203e-05 0.107129 0.462995 55.845 -4.69101e-07 
7 1 9.77541e-07 0.0356678 0.46304 55.845 -6.83774e-07 
8 1 0.0356298 0.0714294 0.463041 55.845 -5.15263e-07 
9 1 0.0714515 0.107118 0.463114 55.845 -5.79029e-07 
13 1 0.0357215 6.50491e-05 0.46319 55.845 -8.06786e-07 
14 1 0.0715092 0.0357714 0.463136 55.845 -5.64427e-07 
15 1 0.107198 0.0713618 0.463139 55.845 -5.44614e-07 
20 1 0.107188 -6.59498e-05 0.463107 55.845 -5.18954e-07 
55 1 -1.21292e-05 0.107113 0.379448 55.845 -3.87874e-07 
63 1 3.06322e-05 0.0357426 0.379372 55.845 -7.51137e-07 
64 1 6.16185e-05 0.0714128 0.421081 55.845 9.18381e-07 
65 1 0.0357068 0.071469 0.379529 55.845 -2.65434e-07 
66 1 0.0357942 0.107172 0.421013 55.845 5.67113e-07 
67 1 0.071375 0.10715 0.379542 55.845 2.88725e-07 
74 1 3.58746e-05 6.12829e-05 0.420933 55.845 1.17315e-06 
75 1 0.0357399 9.51257e-05 0.379464 55.845 -4.57854e-07 
76 1 0.0358092 0.035851 0.420888 55.845 9.18571e-07 
77 1 0.0714728 0.0356719 0.379335 55.845 -1.96978e-07 
78 1 0.071462 0.0714786 0.421071 55.845 6.17051e-07 
79 1 0.107151 0.0714893 0.379304 55.845 -2.37729e-08 
80 1 0.107189 0.107101 0.421003 55.845 5.89128e-07 
88 1 0.0713778 9.16841e-05 0.420948 55.845 9.06888e-07 
89 1 0.107139 9.4966e-05 0.379422 55.845 -4.12458e-07 
90 1 0.107084 0.0357018 0.421044 55.845 7.91391e-07 
157 1 -5.48725e-05 0.107152 0.295001 55.845 3.26563e-07 
165 1 -2.2441e-05 0.0356869 0.294841 55.845 1.06705e-07 
166 1 -6.8621e-06 0.0713572 0.337942 55.845 -2.86192e-07 
167 1 0.0356972 0.0715415 0.294995 55.845 3.64124e-07 
168 1 0.0357651 0.107175 0.337851 55.845 -5.95052e-07 
169 1 0.0714051 0.107075 0.294826 55.845 6.52516e-07 
176 1 -2.83854e-05 -7.55274e-05 0.337793 55.845 1.4242e-07 
177 1 0.0356837 0.000123509 0.294962 55.845 1.89831e-07 
178 1 0.0357213 0.0358479 0.337634 55.845 -2.78604e-07 
179 1 0.0714324 0.035855 0.294859 55.845 3.44335e-07 
180 1 0.07144 0.0714525 0.337845 55.845 -4.98665e-07 
181 1 0.107128 0.0714536 0.294748 55.845 4.60291e-07 
182 1 0.107179 0.10726 0.33784 55.845 -4.38505e-07 
190 1 0.0714 5.03528e-05 0.337858 55.845 -2.35204e-07 
191 1 0.107159 -1.12902e-05 0.294892 55.845 3.38129e-07 
192 1 0.107185 0.0357499 0.337889 55.845 -1.78967e-07 
268 1 -2.04695e-05 0.0714692 0.252186 55.845 -5.5211e-07 
270 1 0.0356916 0.107251 0.252064 55.845 -3.96671e-07 
278 1 -8.10522e-05 3.51403e-05 0.252132 55.845 -1.6466e-07 
280 1 0.0357588 0.0357761 0.252278 55.845 -3.23099e-07 
282 1 0.0714163 0.0714643 0.252099 55.845 -2.00958e-07 
284 1 0.107125 0.107111 0.251987 55.845 -8.25663e-08 
292 1 0.0714337 0.000141779 0.252131 55.845 -3.65039e-07 
294 1 0.107219 0.0358412 0.252123 55.845 -2.64362e-07 
16 1 0.142815 0.10714 0.463096 55.845 -6.07474e-07 
21 1 0.142878 0.035673 0.463143 55.845 -6.35947e-07 
22 1 0.178667 0.0713611 0.463019 55.845 -7.31226e-07 
23 1 0.214246 0.107095 0.462974 55.845 -8.04717e-07 
27 1 0.178605 -8.96204e-05 0.462977 55.845 -6.24395e-07 
28 1 0.214239 0.0356512 0.462923 55.845 -7.44134e-07 
29 1 0.250056 0.0714275 0.462917 55.845 -6.78537e-07 
81 1 0.142887 0.107129 0.379299 55.845 -3.97416e-07 
91 1 0.142893 0.0357775 0.379407 55.845 -3.65593e-07 
92 1 0.142938 0.0713856 0.420963 55.845 8.79266e-07 
93 1 0.178596 0.0713997 0.379389 55.845 -7.00014e-07 
94 1 0.178599 0.107107 0.42096 55.845 1.17225e-06 
95 1 0.21425 0.107065 0.379352 55.845 -7.64297e-07 
102 1 0.142773 -7.25292e-05 0.420964 55.845 8.47152e-07 
103 1 0.178599 6.54676e-05 0.379512 55.845 -4.86381e-07 
104 1 0.178582 0.0355604 0.420872 55.845 1.11982e-06 
105 1 0.214318 0.0357406 0.3793 55.845 -5.47269e-07 
106 1 0.214353 0.071392 0.420967 55.845 1.19321e-06 
107 1 0.250039 0.0715522 0.379373 55.845 -4.30254e-07 
108 1 0.249992 0.107235 0.420947 55.845 1.19435e-06 
118 1 0.214364 -5.92809e-05 0.420809 55.845 1.0796e-06 
120 1 0.250026 0.0357334 0.420837 55.845 9.59521e-07 
183 1 0.142839 0.107157 0.294764 55.845 3.09681e-07 
193 1 0.142906 0.035764 0.294854 55.845 3.49006e-07 
194 1 0.142862 0.0714294 0.337777 55.845 -7.74821e-08 
195 1 0.178633 0.0714967 0.294807 55.845 2.57158e-07 
196 1 0.178581 0.107139 0.337705 55.845 -2.74176e-08 
197 1 0.21434 0.107111 0.29477 55.845 3.52574e-07 
204 1 0.142905 1.4796e-05 0.337615 55.845 -3.45691e-07 
205 1 0.178619 4.64966e-05 0.294748 55.845 4.5558e-07 
206 1 0.178588 0.0357441 0.337768 55.845 3.04342e-08 
207 1 0.214256 0.0357034 0.294754 55.845 3.22793e-07 
208 1 0.214343 0.0714014 0.337709 55.845 -9.08815e-09 
209 1 0.250118 0.071404 0.294788 55.845 3.56398e-07 
210 1 0.24995 0.10723 0.33778 55.845 -1.39727e-08 
220 1 0.214329 6.56097e-05 0.337763 55.845 -1.20212e-07 
222 1 0.250021 0.0358223 0.337847 55.845 -2.71608e-07 
296 1 0.142811 0.0714468 0.252035 55.845 -1.41783e-07 
298 1 0.178548 0.10717 0.25225 55.845 -2.97844e-07 
306 1 0.142846 3.21483e-05 0.251993 55.845 -2.96473e-07 
308 1 0.178505 0.0357677 0.252 55.845 -2.11218e-07 
310 1 0.214298 0.0713775 0.252053 55.845 -2.84799e-07 
312 1 0.249978 0.107116 0.252084 55.845 -3.72e-07 
322 1 0.214207 -6.38718e-05 0.251972 55.845 -3.24716e-07 
324 1 0.250027 0.0356703 0.252093 55.845 -3.42097e-07 
30 1 0.285842 0.107224 0.463125 55.845 -6.97219e-07 
35 1 0.249891 4.70577e-05 0.463023 55.845 -6.95727e-07 
36 1 0.285723 0.0357092 0.463002 55.845 -5.86517e-07 
37 1 0.321376 0.0713937 0.462941 55.845 -3.91667e-07 
38 1 0.35717 0.107158 0.463075 55.845 -3.1005e-07 
42 1 0.321393 4.2204e-05 0.463159 55.845 -5.05546e-07 
43 1 0.357179 0.0356659 0.463027 55.845 -5.35433e-07 
109 1 0.285706 0.107174 0.379438 55.845 -2.18385e-07 
119 1 0.250082 2.6487e-05 0.379299 55.845 -1.80976e-07 
121 1 0.285721 0.0357192 0.379412 55.845 -8.3817e-08 
122 1 0.28572 0.0714089 0.421026 55.845 7.58209e-07 
123 1 0.321419 0.0714348 0.379298 55.845 4.02155e-09 
124 1 0.32143 0.10712 0.42089 55.845 5.97135e-07 
125 1 0.357176 0.107121 0.379407 55.845 -1.21075e-07 
133 1 0.321418 7.56744e-05 0.379476 55.845 -2.61736e-08 
134 1 0.321413 0.0357225 0.420923 55.845 6.74297e-07 
135 1 0.357076 0.0357706 0.379546 55.845 3.7928e-08 
136 1 0.357074 0.0714503 0.420915 55.845 6.21277e-07 
211 1 0.285694 0.10715 0.294779 55.845 5.43236e-07 
221 1 0.249957 9.70732e-05 0.29488 55.845 5.967e-07 
223 1 0.28581 0.0357426 0.294795 55.845 5.28378e-07 
224 1 0.285728 0.0714783 0.337794 55.845 -3.31204e-07 
225 1 0.321528 0.0714523 0.294715 55.845 6.37299e-07 
226 1 0.321413 0.107098 0.337697 55.845 -4.01044e-07 
227 1 0.357192 0.107081 0.29486 55.845 4.97573e-07 
235 1 0.32151 7.6823e-05 0.294815 55.845 6.09746e-07 
236 1 0.321483 0.0356846 0.337876 55.845 -4.90544e-07 
237 1 0.357138 0.0358123 0.294865 55.845 6.39987e-07 
238 1 0.357188 0.0714119 0.337707 55.845 -4.48358e-07 
326 1 0.285632 0.0713941 0.252062 55.845 -3.48349e-07 
328 1 0.321376 0.107107 0.252043 55.845 -3.82366e-07 
338 1 0.321521 0.0356817 0.252058 55.845 -3.88149e-07 
340 1 0.357253 0.0714429 0.252037 55.845 -3.55014e-07 
44 1 0.392847 0.071472 0.463084 55.845 -5.42485e-07 
45 1 0.428596 0.10712 0.463118 55.845 -6.6783e-07 
47 1 0.392889 -9.99586e-06 0.462941 55.845 -6.51143e-07 
48 1 0.428642 0.0355975 0.462908 55.845 -8.33964e-07 
49 1 0.464312 0.0713625 0.463043 55.845 -9.79415e-07 
50 1 0.464346 -7.3093e-06 0.463019 55.845 -1.04065e-06 
137 1 0.392899 0.0714535 0.379549 55.845 -1.50857e-07 
138 1 0.392947 0.107132 0.420908 55.845 7.30516e-07 
139 1 0.428596 0.107123 0.379416 55.845 -3.73671e-07 
144 1 0.39289 6.34445e-05 0.379281 55.845 -4.74495e-07 
145 1 0.392918 0.0357472 0.421004 55.845 8.36407e-07 
146 1 0.428551 0.0356489 0.379539 55.845 -4.83932e-07 
147 1 0.428547 0.0714028 0.421033 55.845 9.03792e-07 
148 1 0.464238 0.0714087 0.379343 55.845 -5.52124e-07 
149 1 0.464374 0.107055 0.420856 55.845 1.07242e-06 
150 1 0.428629 -5.76023e-05 0.420915 55.845 1.23034e-06 
151 1 0.464321 -2.49215e-05 0.379349 55.845 -7.95005e-07 
152 1 0.464373 0.035666 0.42086 55.845 1.15255e-06 
239 1 0.392889 0.071426 0.294815 55.845 6.16818e-07 
240 1 0.3929 0.107142 0.337731 55.845 -2.74459e-07 
241 1 0.428544 0.107091 0.294751 55.845 5.389e-07 
246 1 0.392887 3.65266e-05 0.294866 55.845 5.33435e-07 
247 1 0.392813 0.0356954 0.337882 55.845 -2.12222e-07 
248 1 0.428646 0.0357373 0.294977 55.845 4.85663e-07 
249 1 0.42852 0.0713888 0.337863 55.845 -1.23097e-08 
250 1 0.464305 0.0714265 0.294731 55.845 3.79438e-07 
251 1 0.464271 0.107123 0.337592 55.845 -2.18092e-07 
252 1 0.428631 6.73998e-06 0.337856 55.845 -3.49148e-08 
253 1 0.46433 2.5354e-05 0.29482 55.845 4.54129e-07 
254 1 0.464345 0.0357185 0.337738 55.845 1.20318e-08 
342 1 0.392912 0.10717 0.252019 55.845 -4.50345e-07 
349 1 0.393005 0.0356853 0.252212 55.845 -2.74005e-07 
351 1 0.428639 0.071416 0.251886 55.845 -2.32548e-07 
353 1 0.464256 0.107164 0.251823 55.845 -3.40545e-07 
354 1 0.42861 2.6914e-05 0.252145 55.845 -4.52126e-07 
356 1 0.464352 0.0357095 0.252056 55.845 -3.42063e-07 
1 1 -5.88066e-06 0.178507 0.463118 55.845 -4.87994e-07 
2 1 0.035738 0.214291 0.463013 55.845 -4.78461e-07 
4 1 0.0357328 0.142764 0.462982 55.845 -4.99902e-07 
5 1 0.0713306 0.178561 0.463128 55.845 -4.8176e-07 
6 1 0.107127 0.214293 0.462907 55.845 -4.65721e-07 
10 1 0.107142 0.142817 0.463064 55.845 -4.4915e-07 
51 1 1.7898e-05 0.178563 0.379476 55.845 -3.08662e-07 
52 1 -4.98583e-05 0.214321 0.420999 55.845 9.95243e-07 
53 1 0.0357043 0.214242 0.379346 55.845 -3.858e-07 
54 1 0.0357462 0.249982 0.420834 55.845 1.07265e-06 
56 1 2.58816e-05 0.142887 0.420954 55.845 7.09061e-07 
57 1 0.0356907 0.142818 0.379314 55.845 1.60919e-07 
58 1 0.0356995 0.178511 0.421015 55.845 6.25863e-07 
59 1 0.0713021 0.17848 0.379363 55.845 5.67383e-08 
60 1 0.0713398 0.214165 0.420932 55.845 8.30188e-07 
61 1 0.107099 0.214194 0.379494 55.845 -2.49217e-07 
62 1 0.107162 0.249965 0.420846 55.845 9.90009e-07 
68 1 0.071352 0.142843 0.42108 55.845 3.53665e-07 
69 1 0.107156 0.14278 0.379504 55.845 8.34629e-08 
70 1 0.107119 0.178487 0.420999 55.845 7.73289e-07 
153 1 -6.42925e-05 0.17857 0.294857 55.845 8.29945e-07 
154 1 -1.17915e-05 0.214288 0.337735 55.845 -1.45883e-07 
155 1 0.0357171 0.214295 0.294816 55.845 6.13692e-07 
156 1 0.0357523 0.25008 0.337717 55.845 -3.29204e-07 
158 1 7.5645e-05 0.142856 0.337841 55.845 -3.84919e-07 
159 1 0.0356569 0.142829 0.294755 55.845 8.60721e-07 
160 1 0.0356139 0.178554 0.337888 55.845 -4.41677e-07 
161 1 0.0713706 0.178525 0.294744 55.845 6.82474e-07 
162 1 0.0714847 0.2143 0.337645 55.845 -5.2744e-07 
163 1 0.107197 0.214228 0.294554 55.845 6.73128e-07 
164 1 0.107175 0.249905 0.337935 55.845 -1.07176e-07 
170 1 0.071343 0.142884 0.337713 55.845 -6.82394e-07 
171 1 0.107024 0.142853 0.29472 55.845 5.0849e-07 
172 1 0.107199 0.17854 0.337888 55.845 -5.55091e-07 
256 1 6.48308e-06 0.214286 0.25211 55.845 -4.72363e-07 
258 1 0.0357812 0.249953 0.252014 55.845 -5.65719e-07 
260 1 -0.000125927 0.142883 0.251998 55.845 -4.69487e-07 
262 1 0.0357048 0.178591 0.252149 55.845 -4.88089e-07 
264 1 0.0713782 0.214202 0.251969 55.845 -5.19934e-07 
266 1 0.107178 0.249974 0.252102 55.845 -4.65805e-07 
272 1 0.0713965 0.142752 0.252034 55.845 -3.07406e-07 
274 1 0.10703 0.178506 0.251977 55.845 -5.09369e-07 
11 1 0.14275 0.178568 0.463 55.845 -6.63793e-07 
12 1 0.178457 0.214317 0.463152 55.845 -8.67555e-07 
17 1 0.178503 0.142828 0.462983 55.845 -7.16937e-07 
18 1 0.214229 0.178577 0.463021 55.845 -9.13104e-07 
19 1 0.250084 0.21428 0.463189 55.845 -8.63665e-07 
24 1 0.250077 0.142943 0.462951 55.845 -8.72172e-07 
71 1 0.142835 0.178562 0.379352 55.845 -4.36903e-07 
72 1 0.142824 0.214187 0.420857 55.845 9.14961e-07 
73 1 0.178636 0.214353 0.3795 55.845 -4.87377e-07 
82 1 0.142788 0.142889 0.420988 55.845 9.01735e-07 
83 1 0.178588 0.142843 0.379432 55.845 -5.88184e-07 
84 1 0.178495 0.178518 0.420881 55.845 1.16186e-06 
85 1 0.214275 0.178474 0.379405 55.845 -6.35913e-07 
86 1 0.214256 0.214254 0.42106 55.845 1.24594e-06 
87 1 0.249916 0.214339 0.379448 55.845 -4.09632e-07 
96 1 0.214289 0.142791 0.420922 55.845 1.22857e-06 
97 1 0.250075 0.142799 0.379339 55.845 -5.51829e-07 
98 1 0.249942 0.17862 0.42083 55.845 1.13152e-06 
173 1 0.142786 0.178526 0.29463 55.845 3.95852e-07 
174 1 0.14282 0.214268 0.337843 55.845 -8.9973e-08 
175 1 0.17857 0.214277 0.294938 55.845 6.35939e-07 
184 1 0.142821 0.142867 0.337711 55.845 -3.58992e-07 
185 1 0.178572 0.142956 0.294785 55.845 3.02228e-07 
186 1 0.178465 0.178581 0.337807 55.845 -2.32677e-08 
187 1 0.214204 0.178534 0.2948 55.845 5.98357e-07 
188 1 0.214294 0.214259 0.337816 55.845 -1.24915e-07 
189 1 0.24999 0.214207 0.294719 55.845 5.62872e-07 
198 1 0.21421 0.142807 0.337691 55.845 6.7143e-08 
199 1 0.249924 0.142896 0.294846 55.845 6.74431e-07 
200 1 0.250019 0.17855 0.337741 55.845 -9.98611e-08 
276 1 0.142831 0.214265 0.252048 55.845 -4.43446e-07 
286 1 0.14273 0.142787 0.252177 55.845 -4.82684e-07 
288 1 0.178616 0.178577 0.252014 55.845 -5.43599e-07 
290 1 0.214251 0.214254 0.25209 55.845 -5.76431e-07 
300 1 0.214303 0.142874 0.252035 55.845 -3.99265e-07 
302 1 0.250028 0.178547 0.252033 55.845 -3.22616e-07 
25 1 0.285674 0.178659 0.462892 55.845 -7.17543e-07 
26 1 0.321508 0.214273 0.462847 55.845 -6.35365e-07 
31 1 0.321521 0.142891 0.462992 55.845 -5.2965e-07 
32 1 0.357157 0.178541 0.462974 55.845 -3.49357e-07 
99 1 0.28569 0.178554 0.379386 55.845 -1.33449e-07 
100 1 0.285754 0.214171 0.420799 55.845 9.08892e-07 
101 1 0.321475 0.214284 0.379493 55.845 -2.30669e-07 
110 1 0.285799 0.142852 0.420777 55.845 9.54653e-07 
111 1 0.321515 0.142873 0.379279 55.845 -7.70765e-08 
112 1 0.321485 0.178555 0.42084 55.845 8.0285e-07 
113 1 0.357175 0.178452 0.379311 55.845 -3.29679e-07 
114 1 0.35721 0.21428 0.420721 55.845 8.93065e-07 
126 1 0.357193 0.142769 0.421053 55.845 8.58298e-07 
201 1 0.285705 0.178493 0.294923 55.845 7.1522e-07 
202 1 0.285659 0.214217 0.337827 55.845 -4.05059e-07 
203 1 0.321416 0.214208 0.294895 55.845 5.50929e-07 
212 1 0.285764 0.142837 0.337626 55.845 -1.50199e-07 
213 1 0.321515 0.142793 0.294739 55.845 5.5708e-07 
214 1 0.321384 0.178556 0.337763 55.845 -2.88568e-07 
215 1 0.357207 0.178479 0.29486 55.845 4.19017e-07 