ITEM: TIMESTEP
1600
ITEM: NUMBER OF ATOMS
5880
ITEM: BOX BOUNDS pp pp ff
-28.0062 28.0062
-28.0062 28.0062
0 34.092
ITEM: ATOMS id type xs ys zs mass q 
259 1 -7.89324e-05 0.107139 0.208187 55.845 -3.43728e-07 
267 1 -2.83369e-05 0.0357109 0.20841 55.845 -8.63332e-09 
269 1 0.0356613 0.0714044 0.208336 55.845 -4.29609e-07 
271 1 0.0714106 0.107151 0.208349 55.845 4.4412e-07 
279 1 0.0357244 1.21198e-05 0.208287 55.845 -6.66397e-08 
281 1 0.0713146 0.0356751 0.208401 55.845 5.75564e-07 
283 1 0.10709 0.0714163 0.208344 55.845 -3.14753e-08 
293 1 0.10712 -4.52856e-05 0.208341 55.845 5.15796e-07 
361 1 -2.782e-05 0.107177 0.124568 55.845 2.19205e-07 
369 1 -4.71668e-05 0.0356948 0.124622 55.845 6.25231e-08 
370 1 -4.71974e-05 0.0714186 0.166477 55.845 -2.61003e-07 
371 1 0.0357171 0.0713274 0.124665 55.845 4.43296e-07 
372 1 0.0356934 0.107159 0.166514 55.845 -3.55417e-07 
373 1 0.0714277 0.107086 0.124757 55.845 5.471e-07 
380 1 -3.1334e-05 7.28861e-05 0.166486 55.845 1.43141e-07 
381 1 0.035688 -7.89559e-05 0.124616 55.845 5.03759e-07 
382 1 0.0356584 0.035674 0.166529 55.845 -4.18185e-07 
383 1 0.0713772 0.0356607 0.124585 55.845 4.54852e-07 
384 1 0.0714158 0.0714232 0.166703 55.845 -3.80169e-07 
385 1 0.107098 0.0714094 0.124634 55.845 3.18347e-07 
386 1 0.107158 0.10707 0.166525 55.845 -4.91803e-07 
394 1 0.0714172 -2.73411e-05 0.166566 55.845 -3.65452e-07 
395 1 0.107076 2.78694e-05 0.124517 55.845 8.29221e-08 
396 1 0.107037 0.0357064 0.166692 55.845 -5.76504e-07 
463 1 0 0.107143 0.0416667 55.845 3.84786e-07 
471 1 0 0.0357143 0.0416667 55.845 3.59365e-07 
472 1 2.94381e-05 0.0714406 0.0823696 55.845 -6.91554e-08 
473 1 0.0357143 0.0714286 0.0416667 55.845 4.86001e-07 
474 1 0.0357807 0.107099 0.0823713 55.845 3.57178e-08 
475 1 0.0714286 0.107143 0.0416667 55.845 4.65629e-07 
482 1 2.71086e-06 4.08516e-05 0.0823188 55.845 -5.27863e-07 
483 1 0.0357143 0 0.0416667 55.845 1.53817e-07 
484 1 0.0357236 0.0357166 0.0823376 55.845 -5.42203e-07 
485 1 0.0714286 0.0357143 0.0416667 55.845 5.02271e-07 
486 1 0.0714562 0.0714477 0.0823339 55.845 -7.0618e-07 
487 1 0.107143 0.0714286 0.0416667 55.845 3.81068e-07 
488 1 0.107172 0.107131 0.0823293 55.845 -2.48899e-07 
496 1 0.0713573 -3.9928e-05 0.082361 55.845 -5.46497e-07 
497 1 0.107143 0 0.0416667 55.845 6.29306e-07 
498 1 0.107155 0.0357383 0.0823699 55.845 -1.07759e-07 
567 1 0 0.0714286 0 55.845 -2.88863e-07 
568 1 0.0357143 0.107143 0 55.845 -3.19022e-07 
572 1 0 0 0 55.845 -1.10324e-07 
573 1 0.0357143 0.0357143 0 55.845 -1.41203e-07 
574 1 0.0714286 0.0714286 0 55.845 5.76011e-09 
575 1 0.107143 0.107143 0 55.845 -6.62211e-08 
579 1 0.0714286 0 0 55.845 1.73731e-07 
580 1 0.107143 0.0357143 0 55.845 3.06482e-07 
285 1 0.142777 0.107084 0.208315 55.845 2.10979e-08 
295 1 0.142817 0.035637 0.208317 55.845 -2.0769e-07 
297 1 0.178549 0.0714533 0.208257 55.845 -1.49541e-07 
299 1 0.214248 0.107141 0.208287 55.845 -5.06588e-07 
307 1 0.178499 -6.45661e-05 0.208277 55.845 -1.04335e-08 
309 1 0.214281 0.0357258 0.208205 55.845 -1.43628e-07 
311 1 0.250084 0.0714212 0.208161 55.845 -3.34297e-07 
387 1 0.142755 0.107168 0.124511 55.845 -1.87346e-08 
397 1 0.142796 0.035732 0.124672 55.845 8.26603e-08 
398 1 0.142807 0.071464 0.166528 55.845 -1.43366e-07 
399 1 0.178562 0.0714528 0.124707 55.845 -4.15946e-07 
400 1 0.178525 0.107181 0.166484 55.845 -4.47679e-08 
401 1 0.214285 0.107071 0.124665 55.845 1.25914e-07 
408 1 0.142854 1.26155e-05 0.166601 55.845 -1.03804e-07 
409 1 0.178487 3.96696e-05 0.124565 55.845 5.48464e-07 
410 1 0.178557 0.0357338 0.166622 55.845 -3.51993e-07 
411 1 0.214253 0.0356709 0.124584 55.845 -7.22303e-08 
412 1 0.214289 0.0714162 0.166517 55.845 -3.3489e-07 
413 1 0.25008 0.0714322 0.124686 55.845 -4.15835e-07 
414 1 0.250005 0.107166 0.166496 55.845 -2.04442e-07 
424 1 0.21423 4.35877e-05 0.166527 55.845 -7.97245e-07 
426 1 0.249974 0.0357029 0.16649 55.845 6.95389e-08 
489 1 0.142857 0.107143 0.0416667 55.845 -1.7907e-07 
499 1 0.142857 0.0357143 0.0416667 55.845 -3.87014e-08 
500 1 0.142852 0.0714219 0.0824416 55.845 3.86179e-07 
501 1 0.178571 0.0714286 0.0416667 55.845 4.4002e-08 
502 1 0.178549 0.107197 0.0824836 55.845 2.42314e-07 
503 1 0.214286 0.107143 0.0416667 55.845 -1.37931e-07 
510 1 0.142837 7.74802e-06 0.0823811 55.845 -2.72683e-07 
511 1 0.178571 0 0.0416667 55.845 4.22367e-08 
512 1 0.178459 0.0357411 0.0824035 55.845 3.89969e-07 
513 1 0.214286 0.0357143 0.0416667 55.845 -8.57231e-08 
514 1 0.214313 0.0714225 0.0824621 55.845 4.03742e-07 
515 1 0.25 0.0714286 0.0416667 55.845 1.30653e-07 
516 1 0.25001 0.107137 0.082365 55.845 6.87414e-08 
526 1 0.214203 -2.82249e-05 0.0823969 55.845 8.60486e-08 
528 1 0.249997 0.0357588 0.0824637 55.845 9.3115e-08 
581 1 0.142857 0.0714286 0 55.845 1.90636e-07 
582 1 0.178571 0.107143 0 55.845 3.07518e-07 
586 1 0.142857 0 0 55.845 -1.04645e-07 
587 1 0.178571 0.0357143 0 55.845 -5.4689e-08 
588 1 0.214286 0.0714286 0 55.845 -9.47694e-08 
589 1 0.25 0.107143 0 55.845 5.89454e-07 
594 1 0.214286 0 0 55.845 -1.93288e-07 
595 1 0.25 0.0357143 0 55.845 2.20701e-07 
313 1 0.285762 0.107122 0.208219 55.845 -7.90304e-08 
323 1 0.24996 -3.21495e-06 0.208271 55.845 5.64548e-08 
325 1 0.285671 0.0356738 0.208232 55.845 -2.89003e-07 
327 1 0.321499 0.0714792 0.208336 55.845 -2.57849e-07 
329 1 0.357156 0.10715 0.2082 55.845 7.97243e-09 
337 1 0.321378 2.80297e-05 0.208118 55.845 5.79005e-07 
339 1 0.357162 0.035788 0.208191 55.845 -1.14955e-07 
415 1 0.285741 0.107091 0.124635 55.845 -3.84888e-07 
425 1 0.25001 -4.14601e-05 0.124674 55.845 2.44305e-07 
427 1 0.285651 0.0356955 0.124472 55.845 2.1701e-07 
428 1 0.285773 0.0714366 0.166685 55.845 -9.83728e-09 
429 1 0.321439 0.071426 0.12466 55.845 1.87885e-07 
430 1 0.321438 0.107164 0.166527 55.845 -5.45166e-08 
431 1 0.357115 0.107158 0.124587 55.845 2.10892e-07 
439 1 0.321459 2.43298e-05 0.124573 55.845 2.95201e-07 
440 1 0.321419 0.0357309 0.166546 55.845 -2.25685e-07 
441 1 0.357106 0.035678 0.124655 55.845 1.9219e-07 
442 1 0.357176 0.071489 0.166502 55.845 -1.73931e-07 
517 1 0.285714 0.107143 0.0416667 55.845 4.90961e-07 
527 1 0.25 0 0.0416667 55.845 2.80703e-07 
529 1 0.285714 0.0357143 0.0416667 55.845 1.96167e-07 
530 1 0.28575 0.071456 0.0823578 55.845 -2.09442e-07 
531 1 0.321429 0.0714286 0.0416667 55.845 7.61508e-07 
532 1 0.321476 0.107141 0.0823291 55.845 -3.62917e-07 
533 1 0.357143 0.107143 0.0416667 55.845 4.14426e-07 
603 1 0.357143 0.0714286 0 55.845 -9.98887e-09 
541 1 0.321429 0 0.0416667 55.845 -9.00355e-08 
542 1 0.32144 0.0357577 0.0823937 55.845 -2.33405e-07 
543 1 0.357143 0.0357143 0.0416667 55.845 -1.49828e-07 
544 1 0.357139 0.0714151 0.0824685 55.845 -9.74073e-08 
602 1 0.321429 0.0357143 0 55.845 2.31911e-07 
596 1 0.285714 0.0714286 0 55.845 9.62676e-08 
597 1 0.321429 0.107143 0 55.845 1.01402e-07 
612 1 0.464286 0.0357143 0 55.845 1.80921e-07 
611 1 0.428571 0 0 55.845 3.84085e-07 
610 1 0.464286 0.107143 0 55.845 1.16486e-08 
609 1 0.428571 0.0714286 0 55.845 -1.99238e-08 
608 1 0.392857 0.0357143 0 55.845 -3.00413e-08 
341 1 0.39288 0.0714364 0.208232 55.845 -5.07092e-07 
343 1 0.428595 0.107131 0.208291 55.845 -3.41813e-07 
348 1 0.392845 -4.59197e-05 0.208158 55.845 5.44137e-08 
350 1 0.428599 0.0357082 0.208228 55.845 -1.6665e-07 
352 1 0.464311 0.0714419 0.20818 55.845 -1.12379e-07 
355 1 0.46426 -3.95406e-05 0.208211 55.845 1.20974e-07 
443 1 0.392906 0.0713987 0.124671 55.845 4.6599e-08 
444 1 0.392982 0.107145 0.166524 55.845 -2.46279e-07 
445 1 0.428545 0.107096 0.124696 55.845 2.03572e-07 
604 1 0.392857 0.107143 0 55.845 -2.1699e-07 
450 1 0.392875 3.13603e-05 0.124597 55.845 -8.91868e-08 
451 1 0.392963 0.0357126 0.166532 55.845 -7.3446e-08 
452 1 0.428651 0.0357668 0.12456 55.845 8.53649e-08 
453 1 0.428576 0.0713851 0.166582 55.845 -4.43587e-08 
454 1 0.464256 0.0714971 0.12457 55.845 5.22438e-08 
455 1 0.464292 0.10715 0.166571 55.845 -2.82035e-07 
456 1 0.42859 -2.68369e-06 0.166475 55.845 -3.10108e-07 
457 1 0.46437 2.04425e-05 0.124585 55.845 -7.93547e-08 
458 1 0.464272 0.0357368 0.166457 55.845 1.05186e-07 
545 1 0.392857 0.0714286 0.0416667 55.845 3.66905e-07 
546 1 0.392849 0.107153 0.0823638 55.845 1.56639e-07 
547 1 0.428571 0.107143 0.0416667 55.845 2.89644e-07 
552 1 0.392857 0 0.0416667 55.845 -6.52815e-08 
553 1 0.392841 0.0357588 0.0823504 55.845 1.18041e-07 
554 1 0.428571 0.0357143 0.0416667 55.845 -3.25788e-08 
555 1 0.428574 0.071472 0.082408 55.845 5.74807e-08 
556 1 0.464286 0.0714286 0.0416667 55.845 5.301e-07 
557 1 0.464255 0.107133 0.0823824 55.845 2.391e-07 
558 1 0.428564 4.07612e-05 0.082395 55.845 1.4007e-07 
559 1 0.464286 0 0.0416667 55.845 -9.40316e-08 
560 1 0.464275 0.035732 0.0823544 55.845 3.06353e-08 
255 1 -9.25051e-06 0.178634 0.208192 55.845 2.72109e-07 
257 1 0.0357534 0.214222 0.208258 55.845 1.29922e-08 
261 1 0.0357571 0.142838 0.208292 55.845 2.22376e-07 
263 1 0.071415 0.178583 0.208199 55.845 3.84436e-07 
265 1 0.107133 0.214354 0.208183 55.845 1.38395e-07 
273 1 0.107171 0.142844 0.208278 55.845 2.2733e-07 
357 1 3.77028e-06 0.178565 0.124465 55.845 2.1321e-08 
358 1 1.94916e-05 0.214287 0.166523 55.845 -9.86894e-08 
359 1 0.035703 0.214313 0.124617 55.845 3.3296e-07 
360 1 0.0356991 0.250009 0.166502 55.845 -3.80398e-07 
362 1 1.24104e-05 0.142873 0.166459 55.845 -2.26086e-07 
363 1 0.035681 0.142843 0.124568 55.845 2.01117e-07 
364 1 0.0356594 0.178561 0.16654 55.845 -6.318e-07 
365 1 0.0714436 0.178523 0.124685 55.845 3.76827e-07 
366 1 0.0714598 0.214272 0.166609 55.845 -4.94759e-07 
367 1 0.107164 0.214283 0.12456 55.845 -2.22281e-07 
368 1 0.107147 0.250003 0.166499 55.845 2.68588e-08 
374 1 0.0714362 0.142831 0.166565 55.845 -1.42953e-07 
375 1 0.107119 0.142817 0.124702 55.845 2.4004e-07 
376 1 0.107179 0.178576 0.166542 55.845 -2.85805e-07 
459 1 0 0.178571 0.0416667 55.845 -2.6794e-09 
460 1 3.7117e-05 0.214333 0.0823534 55.845 -1.93842e-07 
461 1 0.0357143 0.214286 0.0416667 55.845 -1.40989e-07 
462 1 0.0357481 0.249968 0.0824403 55.845 1.27665e-07 
464 1 -2.88897e-06 0.142786 0.08237 55.845 8.03442e-08 
465 1 0.0357143 0.142857 0.0416667 55.845 1.26201e-07 
466 1 0.035696 0.178625 0.0824889 55.845 4.89894e-08 
467 1 0.0714286 0.178571 0.0416667 55.845 1.3258e-07 
468 1 0.0714748 0.214327 0.082375 55.845 -2.04038e-07 
469 1 0.107143 0.214286 0.0416667 55.845 2.7942e-07 
470 1 0.107104 0.24997 0.0823985 55.845 -1.82362e-07 
476 1 0.0713992 0.142829 0.0823203 55.845 -3.9526e-07 
477 1 0.107143 0.142857 0.0416667 55.845 -1.23727e-07 
478 1 0.107141 0.17856 0.0823922 55.845 -6.85598e-08 
561 1 0 0.214286 0 55.845 3.50096e-07 
562 1 0.0357143 0.25 0 55.845 -7.34493e-08 
563 1 0 0.142857 0 55.845 -1.55109e-07 
564 1 0.0357143 0.178571 0 55.845 1.86856e-07 
565 1 0.0714286 0.214286 0 55.845 1.75699e-07 
566 1 0.107143 0.25 0 55.845 -1.49844e-07 
569 1 0.0714286 0.142857 0 55.845 -7.2374e-08 
570 1 0.107143 0.178571 0 55.845 2.23541e-07 
275 1 0.142834 0.178498 0.208277 55.845 -3.53635e-08 
277 1 0.178585 0.214332 0.208215 55.845 -1.32168e-07 
287 1 0.178595 0.142783 0.208172 55.845 -3.54889e-08 
289 1 0.214297 0.178531 0.208074 55.845 -2.3336e-07 
291 1 0.250011 0.214343 0.208278 55.845 -8.74235e-08 
301 1 0.250014 0.142795 0.208181 55.845 2.14784e-07 
377 1 0.142882 0.178508 0.124559 55.845 -2.62084e-07 
378 1 0.142854 0.214219 0.166674 55.845 -9.86229e-08 
379 1 0.178574 0.214285 0.124704 55.845 -4.17213e-08 
388 1 0.142856 0.14283 0.166499 55.845 1.17793e-07 
389 1 0.178547 0.142882 0.124537 55.845 -5.52963e-07 
390 1 0.178566 0.178609 0.166543 55.845 9.19368e-08 
391 1 0.214338 0.178512 0.124573 55.845 -2.18162e-07 
392 1 0.214321 0.214277 0.16646 55.845 -4.57072e-07 
393 1 0.249996 0.214267 0.124625 55.845 2.80189e-07 
402 1 0.214246 0.142852 0.166508 55.845 6.58797e-09 
403 1 0.250038 0.142887 0.124598 55.845 -1.10057e-07 
404 1 0.250029 0.178601 0.166647 55.845 -2.36866e-08 
479 1 0.142857 0.178571 0.0416667 55.845 8.72597e-08 
480 1 0.142943 0.214304 0.0823864 55.845 -5.8387e-08 
481 1 0.178571 0.214286 0.0416667 55.845 -8.85088e-08 
490 1 0.142866 0.142883 0.0823262 55.845 3.8956e-07 
491 1 0.178571 0.142857 0.0416667 55.845 1.72575e-07 
492 1 0.178575 0.178611 0.0822787 55.845 3.13844e-08 
493 1 0.214286 0.178571 0.0416667 55.845 -1.39648e-08 
494 1 0.214281 0.214251 0.0824465 55.845 6.97138e-08 
495 1 0.25 0.214286 0.0416667 55.845 -5.49224e-07 
504 1 0.214267 0.142843 0.0824435 55.845 3.85382e-07 
505 1 0.25 0.142857 0.0416667 55.845 -4.07741e-07 
506 1 0.249999 0.178568 0.0822914 55.845 2.06056e-07 
571 1 0.142857 0.214286 0 55.845 3.74203e-07 
576 1 0.142857 0.142857 0 55.845 1.29472e-09 
577 1 0.178571 0.178571 0 55.845 3.41586e-07 
578 1 0.214286 0.214286 0 55.845 3.60842e-07 
583 1 0.214286 0.142857 0 55.845 4.02716e-07 
584 1 0.25 0.178571 0 55.845 6.28347e-07 
303 1 0.285757 0.178579 0.2083 55.845 -6.97813e-08 
305 1 0.321541 0.214314 0.208208 55.845 -9.20379e-08 
315 1 0.321453 0.142913 0.208174 55.845 -1.57385e-08 
317 1 0.357196 0.178578 0.20827 55.845 1.43193e-07 
405 1 0.285678 0.178597 0.124629 55.845 -2.41351e-07 
406 1 0.285736 0.214365 0.166703 55.845 5.65578e-08 
407 1 0.321422 0.214274 0.124653 55.845 1.058e-07 
416 1 0.285699 0.142859 0.166518 55.845 2.14293e-07 
417 1 0.321465 0.142867 0.124742 55.845 -3.17506e-08 
418 1 0.321454 0.178569 0.166538 55.845 1.78407e-07 
419 1 0.357089 0.178545 0.12456 55.845 -1.80746e-07 
420 1 0.357181 0.214304 0.166446 55.845 5.60624e-07 
432 1 0.357159 0.142885 0.166597 55.845 7.72357e-08 
507 1 0.285714 0.178571 0.0416667 55.845 3.98536e-07 
508 1 0.285733 0.214255 0.0823453 55.845 -1.98667e-07 
509 1 0.321429 0.214286 0.0416667 55.845 3.31694e-07 
518 1 0.285813 0.142815 0.0822854 55.845 -9.93319e-08 
519 1 0.321429 0.142857 0.0416667 55.845 4.98633e-07 
520 1 0.321494 0.178524 0.0823997 55.845 2.2009e-07 
521 1 0.357143 0.178571 0.0416667 55.845 3.8722e-07 
522 1 0.357152 0.214279 0.082442 55.845 -2.9513e-07 
534 1 0.357152 0.142847 0.0823466 55.845 2.09446e-07 
585 1 0.285714 0.214286 0 55.845 5.5383e-07 
590 1 0.285714 0.142857 0 55.845 1.09421e-07 
591 1 0.321429 0.178571 0 55.845 -2.63714e-07 
592 1 0.357143 0.214286 0 55.845 3.01189e-07 
598 1 0.357143 0.142857 0 55.845 -2.42233e-07 
319 1 0.39286 0.214281 0.20822 55.845 -8.00618e-08 
321 1 0.428578 0.249954 0.208165 55.845 -4.30929e-07 
331 1 0.392896 0.142827 0.20826 55.845 -2.47308e-07 
333 1 0.428622 0.178512 0.208266 55.845 -9.54882e-08 
335 1 0.464301 0.214258 0.208384 55.845 9.88768e-08 
345 1 0.46433 0.142849 0.208219 55.845 -3.29478e-08 
606 1 0.464286 0.178571 0 55.845 7.4313e-08 
421 1 0.392984 0.214296 0.12461 55.845 -5.99727e-08 
422 1 0.392864 0.249988 0.1665 55.845 -3.66429e-07 
423 1 0.428639 0.249987 0.124592 55.845 2.23166e-07 
433 1 0.392845 0.142831 0.124614 55.845 -2.72306e-07 
434 1 0.392866 0.178562 0.166542 55.845 3.64262e-08 
435 1 0.428541 0.178516 0.124562 55.845 -2.53446e-07 
436 1 0.428618 0.214233 0.166536 55.845 -1.56265e-07 
437 1 0.464316 0.214215 0.124587 55.845 -2.23695e-07 
605 1 0.428571 0.142857 0 55.845 -5.51887e-08 
446 1 0.428655 0.142839 0.166643 55.845 -1.23339e-07 
447 1 0.464305 0.14293 0.124577 55.845 -1.89194e-07 
448 1 0.464294 0.178581 0.166562 55.845 1.09509e-07 
523 1 0.392857 0.214286 0.0416667 55.845 2.94506e-07 
524 1 0.392887 0.25 0.0824212 55.845 1.69036e-07 
525 1 0.428571 0.25 0.0416667 55.845 -1.62294e-07 
535 1 0.392857 0.142857 0.0416667 55.845 3.46423e-07 
536 1 0.39287 0.178602 0.0823892 55.845 1.71615e-07 
537 1 0.428571 0.178571 0.0416667 55.845 2.70501e-07 
538 1 0.428622 0.214266 0.0823409 55.845 1.39114e-07 
539 1 0.464286 0.214286 0.0416667 55.845 -1.38008e-07 
548 1 0.428546 0.142844 0.0824405 55.845 2.06618e-07 
549 1 0.464286 0.142857 0.0416667 55.845 -1.5801e-07 
550 1 0.464323 0.178602 0.0823514 55.845 5.63199e-07 
593 1 0.392857 0.25 0 55.845 1.03099e-09 
599 1 0.392857 0.178571 0 55.845 -3.15693e-07 
600 1 0.428571 0.214286 0 55.845 4.48336e-07 
3 1 -6.0285e-06 0.107136 0.458679 55.845 3.93047e-07 
7 1 -5.79677e-05 0.0357175 0.458852 55.845 3.42352e-07 
8 1 0.0357134 0.0714024 0.458727 55.845 8.25743e-07 
9 1 0.0714224 0.107195 0.458605 55.845 8.29552e-07 
13 1 0.0356939 2.25654e-05 0.458741 55.845 6.23713e-07 
14 1 0.0714108 0.035724 0.458695 55.845 6.30422e-07 
15 1 0.107152 0.0713575 0.4586 55.845 2.91187e-07 
20 1 0.107039 1.05511e-05 0.458677 55.845 3.21461e-07 
55 1 -0.000105619 0.107169 0.375117 55.845 -1.85026e-07 
63 1 -8.21666e-05 0.0356807 0.375093 55.845 -1.62604e-07 
64 1 -6.34433e-05 0.0713758 0.416862 55.845 2.64147e-07 
65 1 0.035667 0.0714375 0.375204 55.845 -9.10178e-08 
66 1 0.035647 0.107135 0.416748 55.845 -9.88192e-08 
67 1 0.0713841 0.107182 0.375104 55.845 -3.38159e-07 
74 1 -5.98992e-05 1.79983e-06 0.416927 55.845 6.69972e-07 
75 1 0.0356857 -2.24236e-05 0.375004 55.845 -5.43704e-07 
76 1 0.0356557 0.035667 0.41678 55.845 3.22878e-07 
77 1 0.0714172 0.0357002 0.375064 55.845 -5.61952e-07 
78 1 0.0714411 0.071368 0.416826 55.845 8.44161e-08 
79 1 0.107139 0.0713444 0.374939 55.845 1.51152e-07 
80 1 0.107148 0.107093 0.416702 55.845 6.36561e-08 
88 1 0.0713748 -2.17243e-05 0.416791 55.845 5.46479e-07 
89 1 0.107103 -3.43031e-05 0.375064 55.845 -3.3914e-07 
90 1 0.10713 0.0356703 0.416732 55.845 5.43295e-07 
157 1 -7.87875e-05 0.107146 0.291851 55.845 -5.10289e-07 
165 1 -1.99145e-05 0.0356718 0.291899 55.845 -7.4533e-07 
166 1 2.23509e-05 0.0714662 0.333655 55.845 1.4411e-07 
167 1 0.0356727 0.0714065 0.291859 55.845 -2.82753e-07 
168 1 0.035692 0.107108 0.33352 55.845 2.79084e-07 
169 1 0.0713688 0.107213 0.291795 55.845 -3.37479e-07 
176 1 -3.01336e-05 3.78079e-05 0.333604 55.845 -1.33459e-09 
177 1 0.0356484 5.29374e-06 0.291794 55.845 -1.12771e-07 
178 1 0.0356746 0.035731 0.333582 55.845 5.29243e-08 
179 1 0.0713701 0.0356517 0.291836 55.845 -1.75341e-07 
180 1 0.0714005 0.0714139 0.333543 55.845 2.08529e-07 
181 1 0.107062 0.0713651 0.29184 55.845 2.49975e-07 
182 1 0.107141 0.10711 0.333535 55.845 -3.63119e-07 
190 1 0.0714067 -4.10032e-05 0.333568 55.845 3.01537e-07 
191 1 0.107115 -7.42893e-05 0.291751 55.845 3.15145e-08 
192 1 0.10714 0.0356148 0.333456 55.845 -4.44933e-07 
268 1 -1.81159e-05 0.0714891 0.249687 55.845 4.611e-07 
270 1 0.0356639 0.107163 0.249765 55.845 3.6579e-07 
278 1 -2.62075e-05 -1.0761e-05 0.249674 55.845 3.87957e-07 
280 1 0.0356585 0.0357884 0.249678 55.845 4.30937e-07 
282 1 0.0713801 0.0714275 0.2498 55.845 -2.15763e-08 
284 1 0.107074 0.107131 0.24977 55.845 5.09478e-07 
292 1 0.0714985 1.06203e-05 0.249705 55.845 5.72106e-08 
294 1 0.107074 0.0357307 0.24968 55.845 -4.29817e-09 
16 1 0.142817 0.107153 0.458671 55.845 8.6829e-07 
21 1 0.142851 0.0356923 0.458649 55.845 9.10592e-07 
22 1 0.178564 0.0713846 0.458706 55.845 6.25929e-07 
23 1 0.21431 0.107104 0.458714 55.845 5.60633e-07 
27 1 0.178546 -5.21412e-05 0.458712 55.845 -1.93927e-07 
28 1 0.214341 0.0357086 0.458697 55.845 3.51237e-07 
29 1 0.250009 0.0714339 0.458601 55.845 4.47679e-07 
81 1 0.142823 0.107101 0.375017 55.845 -2.1932e-07 
91 1 0.142884 0.035715 0.374941 55.845 -7.62333e-07 
92 1 0.142892 0.0714337 0.416718 55.845 2.80518e-07 
93 1 0.178635 0.0713994 0.37515 55.845 -9.27776e-08 
94 1 0.178507 0.107177 0.416783 55.845 -1.04034e-07 
95 1 0.214256 0.107148 0.37495 55.845 -2.38477e-07 
102 1 0.142815 -4.89484e-05 0.416809 55.845 8.90706e-08 
103 1 0.178568 3.19625e-05 0.375035 55.845 -2.55525e-07 
104 1 0.178572 0.0356744 0.416779 55.845 2.96529e-07 
105 1 0.214234 0.0357648 0.374963 55.845 -6.79027e-07 
106 1 0.214288 0.0714053 0.416753 55.845 -2.65026e-07 
107 1 0.250038 0.0714163 0.374909 55.845 -2.69929e-07 
108 1 0.249965 0.107105 0.41666 55.845 2.02714e-07 
118 1 0.214252 1.53725e-05 0.416725 55.845 1.40002e-07 
120 1 0.249961 0.0357116 0.41672 55.845 5.31875e-07 
183 1 0.14286 0.1071 0.29183 55.845 -9.74375e-08 
193 1 0.142862 0.0356901 0.291818 55.845 6.97603e-08 
194 1 0.142849 0.0713756 0.333507 55.845 1.48531e-07 
195 1 0.178605 0.0713471 0.291707 55.845 -7.23111e-07 
196 1 0.178549 0.107066 0.3335 55.845 -4.24449e-08 
197 1 0.214257 0.107173 0.291701 55.845 -4.32716e-07 
204 1 0.142881 3.03705e-05 0.333556 55.845 2.78369e-07 
205 1 0.178592 -3.17418e-05 0.291791 55.845 -5.06782e-07 
206 1 0.178601 0.0356861 0.333574 55.845 4.45879e-07 
207 1 0.214351 0.0356704 0.291747 55.845 -4.52801e-07 
208 1 0.214338 0.0714226 0.33346 55.845 4.32823e-07 
209 1 0.250011 0.0714488 0.291733 55.845 -5.91351e-07 
210 1 0.249985 0.107192 0.333522 55.845 -1.97294e-08 
220 1 0.214308 -3.43561e-05 0.333591 55.845 5.28675e-07 
222 1 0.250006 0.0357266 0.33354 55.845 1.88667e-07 
296 1 0.142817 0.0713527 0.249769 55.845 1.90566e-07 
298 1 0.178518 0.107114 0.249693 55.845 5.08883e-07 
306 1 0.14282 -8.49672e-05 0.249859 55.845 1.9358e-07 
308 1 0.178608 0.0356568 0.249688 55.845 2.96672e-07 
310 1 0.214277 0.0714423 0.249627 55.845 9.87612e-07 
312 1 0.250033 0.107112 0.249653 55.845 8.17447e-07 
322 1 0.214267 -4.00724e-05 0.249668 55.845 5.07611e-07 
324 1 0.249991 0.035754 0.249787 55.845 4.11981e-07 
30 1 0.285727 0.10715 0.458626 55.845 5.21883e-07 
35 1 0.250009 -4.10998e-05 0.458722 55.845 3.73665e-07 
36 1 0.285705 0.0356453 0.458692 55.845 1.91637e-07 
37 1 0.321508 0.0713969 0.45867 55.845 4.59447e-07 
38 1 0.357148 0.107033 0.458745 55.845 3.09418e-07 
42 1 0.321443 -1.59e-05 0.45872 55.845 2.34999e-07 
43 1 0.357158 0.0357257 0.458755 55.845 2.25858e-07 
109 1 0.285697 0.107164 0.374974 55.845 -2.70627e-07 
119 1 0.24999 -5.5549e-05 0.375024 55.845 -5.30605e-07 
121 1 0.285734 0.0356999 0.374976 55.845 -5.19854e-07 
122 1 0.285731 0.0714324 0.41676 55.845 7.68254e-08 
123 1 0.32143 0.0714266 0.375016 55.845 -2.77458e-07 
124 1 0.321506 0.107154 0.416768 55.845 4.82541e-07 
125 1 0.357209 0.107138 0.375091 55.845 -5.1744e-07 
133 1 0.321441 -6.39516e-05 0.374984 55.845 -2.00555e-07 
134 1 0.321411 0.0356868 0.416856 55.845 7.27425e-07 
135 1 0.357155 0.0356595 0.375156 55.845 -8.08657e-07 
136 1 0.357084 0.0713621 0.41669 55.845 5.11951e-07 
211 1 0.28569 0.107087 0.291769 55.845 -1.19324e-07 
221 1 0.250059 -4.50761e-05 0.291754 55.845 -8.53845e-07 
223 1 0.285746 0.0356941 0.291876 55.845 -4.67204e-07 
224 1 0.285754 0.0715053 0.333513 55.845 1.8728e-07 
225 1 0.321522 0.0714326 0.291805 55.845 -5.18832e-07 
226 1 0.321456 0.107119 0.333563 55.845 -2.93758e-07 
227 1 0.357159 0.107085 0.291764 55.845 2.87173e-07 
235 1 0.321465 -4.56882e-05 0.291858 55.845 -6.47374e-07 
236 1 0.321449 0.0357639 0.333625 55.845 -4.14136e-07 
237 1 0.357141 0.0356451 0.291889 55.845 -1.03414e-07 
238 1 0.357179 0.0714514 0.33358 55.845 1.72103e-07 
326 1 0.285748 0.0713732 0.24969 55.845 3.68058e-07 
328 1 0.321472 0.107149 0.249653 55.845 6.48138e-08 
338 1 0.321477 0.035603 0.249648 55.845 4.26081e-07 
340 1 0.357139 0.0713833 0.24972 55.845 2.53201e-07 
44 1 0.39287 0.07143 0.45881 55.845 1.46927e-07 
45 1 0.428574 0.107227 0.4588 55.845 5.48047e-07 
47 1 0.392912 -5.18333e-05 0.458702 55.845 2.81259e-07 
48 1 0.428591 0.0356967 0.458808 55.845 9.22725e-07 
49 1 0.464269 0.0713735 0.458804 55.845 6.8671e-07 
50 1 0.464331 1.84222e-06 0.45867 55.845 3.08716e-07 
137 1 0.392921 0.0714074 0.375097 55.845 -5.33348e-07 
138 1 0.392822 0.107113 0.416821 55.845 4.47998e-07 
139 1 0.428569 0.107117 0.375072 55.845 -4.02647e-07 
144 1 0.392847 -6.4231e-06 0.375033 55.845 -4.069e-07 
145 1 0.392887 0.0356476 0.416877 55.845 1.3015e-07 
146 1 0.428591 0.035717 0.375048 55.845 -2.90378e-07 
147 1 0.428596 0.0714297 0.416902 55.845 1.51835e-07 
148 1 0.464331 0.0713649 0.375049 55.845 -7.92383e-07 
149 1 0.46438 0.107129 0.416804 55.845 9.72829e-07 
150 1 0.42862 -2.13354e-05 0.416777 55.845 1.98355e-07 
151 1 0.464286 -3.76947e-05 0.374957 55.845 -5.85412e-07 
152 1 0.464313 0.0356347 0.416923 55.845 -4.52513e-07 
239 1 0.392871 0.0714158 0.29179 55.845 -2.8525e-07 
240 1 0.392829 0.107094 0.33352 55.845 4.59627e-08 
241 1 0.428546 0.107101 0.291879 55.845 -1.73909e-07 
246 1 0.39292 -5.39942e-06 0.291662 55.845 -4.95551e-07 
247 1 0.392889 0.0357066 0.333528 55.845 -7.63799e-08 
248 1 0.428534 0.0357216 0.291737 55.845 -8.93922e-07 
249 1 0.428626 0.0714131 0.333478 55.845 4.31714e-07 
250 1 0.464249 0.071459 0.291715 55.845 -9.46529e-07 
251 1 0.464303 0.107087 0.333637 55.845 4.55002e-08 
252 1 0.428529 2.77882e-05 0.333519 55.845 -1.68891e-07 
253 1 0.464273 -9.70164e-06 0.29171 55.845 -7.01433e-07 
254 1 0.464241 0.035718 0.333501 55.845 3.38371e-07 
342 1 0.392894 0.10708 0.249665 55.845 5.09848e-07 
349 1 0.392842 0.0356975 0.249597 55.845 3.27598e-07 
351 1 0.42858 0.0713965 0.249684 55.845 1.65001e-07 
353 1 0.464305 0.107201 0.249659 55.845 5.50093e-07 
354 1 0.428548 9.98365e-06 0.249579 55.845 6.27626e-07 
356 1 0.464264 0.0357292 0.249682 55.845 5.27838e-07 
1 1 -1.86593e-05 0.178604 0.45871 55.845 4.66893e-07 
2 1 0.0356319 0.214262 0.458672 55.845 5.37573e-07 
4 1 0.0356304 0.142803 0.458619 55.845 4.9488e-07 
5 1 0.0714148 0.178537 0.458581 55.845 3.71834e-07 
6 1 0.107138 0.214356 0.458748 55.845 5.47099e-07 
10 1 0.107172 0.142903 0.458645 55.845 4.97245e-07 
51 1 -4.03845e-05 0.178604 0.375016 55.845 -6.52773e-07 
52 1 7.49751e-06 0.214274 0.416782 55.845 7.66867e-07 
53 1 0.0357224 0.214253 0.375081 55.845 -3.45541e-07 
54 1 0.0357007 0.249963 0.416718 55.845 1.47979e-07 
56 1 -9.77392e-05 0.142821 0.4167 55.845 1.84913e-07 
57 1 0.0356875 0.142901 0.375031 55.845 -3.09954e-07 
58 1 0.0356918 0.17856 0.416765 55.845 4.48363e-07 
59 1 0.0714342 0.178568 0.374891 55.845 -2.91282e-07 
60 1 0.0713892 0.214263 0.416756 55.845 6.1492e-07 
61 1 0.107174 0.214317 0.374987 55.845 -5.2756e-07 
62 1 0.107083 0.249959 0.416692 55.845 1.90179e-07 
68 1 0.0713818 0.142928 0.416725 55.845 2.53324e-07 
69 1 0.107161 0.142831 0.375006 55.845 -3.51151e-07 
70 1 0.107106 0.178681 0.416812 55.845 4.63648e-07 
153 1 -3.24601e-06 0.178538 0.291648 55.845 -3.01425e-07 
154 1 9.54321e-06 0.214258 0.333525 55.845 1.9571e-07 
155 1 0.0356877 0.214273 0.291785 55.845 -5.45404e-07 
156 1 0.0356724 0.250008 0.333562 55.845 1.14798e-07 
158 1 -5.7646e-05 0.142843 0.333533 55.845 5.99865e-08 
159 1 0.0356537 0.142864 0.291815 55.845 -2.99417e-07 
160 1 0.0356478 0.178627 0.333518 55.845 -7.3875e-08 
161 1 0.0714451 0.178639 0.291756 55.845 -3.77438e-07 
162 1 0.0714493 0.214342 0.333401 55.845 2.33299e-07 
163 1 0.107175 0.214253 0.291822 55.845 5.33903e-08 
164 1 0.107193 0.250058 0.333455 55.845 -2.99757e-08 
170 1 0.0714122 0.142848 0.333581 55.845 -1.5728e-07 
171 1 0.107108 0.142896 0.291763 55.845 3.89407e-07 
172 1 0.10715 0.178546 0.333487 55.845 -2.18664e-07 
256 1 -6.41195e-05 0.214273 0.249705 55.845 3.8707e-07 
258 1 0.0357011 0.249985 0.2496 55.845 2.21918e-07 
260 1 -1.22156e-05 0.142818 0.249648 55.845 7.42789e-08 
262 1 0.0356996 0.178531 0.249688 55.845 2.64161e-07 
264 1 0.0714847 0.214302 0.24969 55.845 4.47325e-08 
266 1 0.107145 0.249961 0.249718 55.845 1.77383e-07 
272 1 0.0713583 0.142917 0.249742 55.845 -6.01505e-09 
274 1 0.107133 0.178631 0.249604 55.845 3.17047e-07 
11 1 0.142858 0.178648 0.458549 55.845 6.34136e-07 
12 1 0.17856 0.214298 0.4587 55.845 8.83304e-07 
17 1 0.178578 0.142826 0.458724 55.845 9.78867e-07 
18 1 0.214298 0.178573 0.4587 55.845 1.03084e-06 
19 1 0.249883 0.214276 0.45876 55.845 4.07197e-07 
24 1 0.250049 0.14286 0.45867 55.845 2.54718e-07 
71 1 0.142882 0.178605 0.374985 55.845 -2.654e-07 
72 1 0.14288 0.214305 0.416771 55.845 1.78934e-07 
73 1 0.178585 0.214299 0.375133 55.845 -3.64861e-07 
82 1 0.142824 0.142905 0.416732 55.845 -3.50076e-08 
83 1 0.17856 0.142857 0.374918 55.845 -5.71815e-08 
84 1 0.178575 0.178503 0.416674 55.845 -5.54842e-08 
85 1 0.214358 0.17863 0.375153 55.845 -3.04011e-07 
86 1 0.214281 0.214346 0.416879 55.845 2.83634e-07 
87 1 0.249966 0.214227 0.375151 55.845 -3.47322e-07 
96 1 0.214221 0.142824 0.41679 55.845 -1.5146e-07 
97 1 0.249992 0.142891 0.375071 55.845 -3.9064e-08 
98 1 0.250021 0.178564 0.416809 55.845 7.01482e-08 
173 1 0.14289 0.17854 0.291788 55.845 1.28623e-08 
174 1 0.142937 0.214255 0.333553 55.845 2.52052e-07 
175 1 0.17856 0.214336 0.291809 55.845 -6.65577e-07 
184 1 0.14286 0.142854 0.333499 55.845 9.21041e-08 
185 1 0.178602 0.142861 0.291738 55.845 -7.17234e-07 
186 1 0.178621 0.178581 0.33351 55.845 3.93736e-07 
187 1 0.214363 0.178599 0.291877 55.845 -2.36608e-07 
188 1 0.214253 0.214284 0.333582 55.845 1.91261e-08 
189 1 0.249973 0.214289 0.291878 55.845 -6.63773e-07 
198 1 0.214224 0.142868 0.33351 55.845 -4.10424e-07 
199 1 0.249997 0.142845 0.291739 55.845 -2.56433e-07 
200 1 0.25005 0.178529 0.333552 55.845 2.7306e-07 
276 1 0.142852 0.21428 0.249659 55.845 4.40283e-07 
286 1 0.142864 0.142866 0.249717 55.845 2.49244e-07 
288 1 0.178604 0.178542 0.249576 55.845 6.45829e-07 
290 1 0.214335 0.214198 0.24962 55.845 9.46675e-07 
300 1 0.214298 0.14293 0.249621 55.845 6.46892e-07 
302 1 0.249992 0.178552 0.249618 55.845 4.7789e-07 
25 1 0.285719 0.178583 0.458677 55.845 9.24236e-07 
26 1 0.321465 0.21431 0.45873 55.845 8.27376e-07 
31 1 0.321387 0.142794 0.458806 55.845 1.55833e-07 
32 1 0.357156 0.178603 0.458774 55.845 8.40373e-07 
99 1 0.285734 0.17855 0.375173 55.845 -1.69597e-07 
100 1 0.285716 0.214317 0.416904 55.845 2.10026e-07 
101 1 0.321442 0.214274 0.375001 55.845 -6.06688e-07 
110 1 0.285732 0.142841 0.416742 55.845 3.35992e-07 
111 1 0.321448 0.142894 0.375054 55.845 -3.66035e-07 
112 1 0.321518 0.178587 0.416848 55.845 4.00061e-07 
113 1 0.357167 0.178542 0.374967 55.845 -5.95231e-07 
114 1 0.357162 0.2142 0.416805 55.845 2.19831e-07 
126 1 0.357094 0.142902 0.416878 55.845 7.74236e-07 
201 1 0.28572 0.17858 0.291799 55.845 -3.40438e-07 
202 1 0.285682 0.214259 0.333539 55.845 3.58178e-08 
203 1 0.321434 0.21428 0.291766 55.845 6.57941e-08 
212 1 0.285675 0.142908 0.333508 55.845 -6.40385e-08 
213 1 0.321413 0.142798 0.291693 55.845 3.39973e-07 
214 1 0.321406 0.178524 0.333526 55.845 -5.07237e-07 
215 1 0.357137 0.17853 0.291631 55.845 2.3934e-07 
216 1 0.35715 0.214272 0.333555 55.845 4.59022e-07 