ITEM: TIMESTEP
200
ITEM: NUMBER OF ATOMS
5880
ITEM: BOX BOUNDS pp pp ff
-27.958 27.958
-27.958 27.958
0 34.092
ITEM: ATOMS id type xs ys zs mass q 
259 1 1.75054e-05 0.107128 0.210169 55.845 -3.55979e-07 
267 1 6.5549e-05 0.0357669 0.210109 55.845 -2.44605e-07 
269 1 0.0357577 0.0714587 0.210108 55.845 -4.28509e-07 
271 1 0.0713909 0.107146 0.210105 55.845 -3.03293e-07 
279 1 0.0357614 -4.28126e-05 0.210113 55.845 -3.22513e-07 
281 1 0.071474 0.0356427 0.210148 55.845 -3.74405e-07 
283 1 0.107084 0.0714097 0.21014 55.845 -2.42043e-07 
293 1 0.107144 -2.16894e-06 0.210207 55.845 -3.13262e-07 
361 1 2.72604e-05 0.107204 0.126097 55.845 -4.10968e-07 
369 1 4.59904e-05 0.0356399 0.12606 55.845 -5.28277e-07 
370 1 2.9739e-05 0.0714237 0.168325 55.845 9.95734e-08 
371 1 0.0357631 0.071409 0.126089 55.845 -5.47378e-07 
372 1 0.0357312 0.107102 0.16835 55.845 1.8138e-07 
373 1 0.0714588 0.107127 0.126146 55.845 -3.03634e-07 
380 1 2.30419e-05 0.000108925 0.168436 55.845 1.98526e-07 
381 1 0.0357063 -9.52151e-05 0.126127 55.845 -4.13906e-07 
382 1 0.0357739 0.0357255 0.16829 55.845 8.60496e-08 
383 1 0.0714352 0.0356882 0.126049 55.845 -4.43993e-07 
384 1 0.0714415 0.0713758 0.16842 55.845 1.91921e-07 
385 1 0.107104 0.071404 0.126297 55.845 -4.02182e-07 
386 1 0.107138 0.107125 0.168474 55.845 2.62906e-07 
394 1 0.0714074 -2.31608e-05 0.168289 55.845 1.78008e-07 
395 1 0.107157 -3.19005e-05 0.126136 55.845 -3.33375e-07 
396 1 0.10719 0.0356751 0.168459 55.845 2.84976e-07 
463 1 0 0.107143 0.0416667 55.845 -2.52771e-07 
471 1 0 0.0357143 0.0416667 55.845 -3.7488e-07 
472 1 7.32455e-06 0.0714373 0.0838674 55.845 3.42126e-07 
473 1 0.0357143 0.0714286 0.0416667 55.845 -3.16767e-07 
474 1 0.0357521 0.10712 0.0838545 55.845 4.12197e-07 
475 1 0.0714286 0.107143 0.0416667 55.845 -2.92775e-07 
482 1 -3.04709e-05 -3.08339e-05 0.0838623 55.845 3.46852e-07 
483 1 0.0357143 0 0.0416667 55.845 -2.81954e-07 
484 1 0.0356755 0.0357471 0.0840147 55.845 2.69242e-07 
485 1 0.0714286 0.0357143 0.0416667 55.845 -2.20958e-07 
486 1 0.0714567 0.0714826 0.0838861 55.845 4.66763e-07 
487 1 0.107143 0.0714286 0.0416667 55.845 -2.25455e-07 
488 1 0.10713 0.107149 0.0839597 55.845 4.32719e-07 
496 1 0.0714217 -2.69951e-05 0.083975 55.845 3.64412e-07 
497 1 0.107143 0 0.0416667 55.845 -2.13378e-07 
498 1 0.107147 0.0357486 0.0839367 55.845 4.34228e-07 
567 1 0 0.0714286 0 55.845 2.94606e-08 
568 1 0.0357143 0.107143 0 55.845 4.30205e-08 
572 1 0 0 0 55.845 5.80953e-08 
573 1 0.0357143 0.0357143 0 55.845 4.92184e-08 
574 1 0.0714286 0.0714286 0 55.845 1.01873e-07 
575 1 0.107143 0.107143 0 55.845 -6.71087e-09 
579 1 0.0714286 0 0 55.845 1.468e-07 
580 1 0.107143 0.0357143 0 55.845 1.80316e-07 
285 1 0.142848 0.107122 0.210276 55.845 -1.09597e-07 
295 1 0.142908 0.0357431 0.210076 55.845 -2.49479e-07 
297 1 0.17857 0.0714324 0.210184 55.845 -1.81847e-07 
299 1 0.214294 0.107083 0.210159 55.845 -2.92349e-07 
307 1 0.178631 5.75825e-05 0.210164 55.845 -2.73946e-07 
309 1 0.214307 0.0357384 0.210181 55.845 -2.04961e-07 
311 1 0.250004 0.0714503 0.210141 55.845 -3.92412e-07 
387 1 0.142865 0.107136 0.126142 55.845 -2.89659e-07 
397 1 0.142784 0.03569 0.126145 55.845 -3.42093e-07 
398 1 0.142847 0.0714268 0.168381 55.845 2.94612e-07 
399 1 0.178586 0.0713582 0.126038 55.845 -4.77832e-07 
400 1 0.178583 0.10711 0.168232 55.845 2.54812e-07 
401 1 0.214374 0.107184 0.126032 55.845 -4.07183e-07 
408 1 0.142884 3.48567e-05 0.168399 55.845 2.08391e-07 
409 1 0.178583 -2.58351e-05 0.126098 55.845 -4.27553e-07 
410 1 0.178647 0.0357246 0.16824 55.845 2.13544e-07 
411 1 0.214283 0.0356685 0.126073 55.845 -4.35329e-07 
412 1 0.214282 0.0713964 0.168175 55.845 1.08091e-07 
413 1 0.250071 0.0714638 0.125998 55.845 -4.08312e-07 
414 1 0.250003 0.107079 0.168463 55.845 7.63084e-08 
424 1 0.214343 -3.45887e-05 0.168401 55.845 2.13871e-07 
426 1 0.249997 0.0357161 0.168359 55.845 2.4225e-07 
489 1 0.142857 0.107143 0.0416667 55.845 -3.48621e-07 
499 1 0.142857 0.0357143 0.0416667 55.845 -3.90619e-07 
500 1 0.14279 0.0714931 0.0839723 55.845 3.17302e-07 
501 1 0.178571 0.0714286 0.0416667 55.845 -4.96862e-07 
502 1 0.178562 0.107183 0.0838422 55.845 4.35084e-07 
503 1 0.214286 0.107143 0.0416667 55.845 -3.51006e-07 
510 1 0.142867 1.69183e-05 0.0839056 55.845 3.43608e-07 
511 1 0.178571 0 0.0416667 55.845 -4.20315e-07 
512 1 0.178578 0.0357099 0.083831 55.845 2.8828e-07 
513 1 0.214286 0.0357143 0.0416667 55.845 -3.38274e-07 
514 1 0.214333 0.071397 0.083912 55.845 2.72177e-07 
515 1 0.25 0.0714286 0.0416667 55.845 -3.02747e-07 
516 1 0.250006 0.107139 0.0838404 55.845 2.93161e-07 
526 1 0.214238 1.01688e-05 0.084083 55.845 2.98088e-07 
528 1 0.25003 0.0356577 0.0839818 55.845 4.88667e-07 
581 1 0.142857 0.0714286 0 55.845 -1.99745e-08 
582 1 0.178571 0.107143 0 55.845 -5.59647e-08 
586 1 0.142857 0 0 55.845 5.30432e-08 
587 1 0.178571 0.0357143 0 55.845 -5.43014e-08 
588 1 0.214286 0.0714286 0 55.845 -5.83095e-08 
589 1 0.25 0.107143 0 55.845 -6.33541e-09 
594 1 0.214286 0 0 55.845 6.30249e-08 
595 1 0.25 0.0357143 0 55.845 1.15099e-07 
313 1 0.285676 0.107168 0.210108 55.845 -4.09809e-07 
323 1 0.250042 -7.54858e-05 0.210272 55.845 -1.16027e-07 
325 1 0.285742 0.0356551 0.210132 55.845 -2.90692e-07 
327 1 0.321456 0.0714423 0.210099 55.845 -3.28733e-07 
329 1 0.3571 0.107103 0.210059 55.845 -2.75714e-07 
337 1 0.321469 -1.78968e-06 0.209979 55.845 -2.4031e-07 
339 1 0.357179 0.0356718 0.210098 55.845 -3.33679e-07 
415 1 0.285704 0.107137 0.126095 55.845 -4.23159e-07 
425 1 0.249958 -2.86616e-06 0.126164 55.845 -1.90505e-07 
427 1 0.285765 0.0356807 0.126056 55.845 -2.19918e-07 
428 1 0.285657 0.0714335 0.168451 55.845 1.23007e-07 
429 1 0.321365 0.071452 0.126248 55.845 -5.39367e-07 
430 1 0.321356 0.107157 0.168309 55.845 1.36266e-07 
431 1 0.357122 0.10719 0.125978 55.845 -3.83428e-07 
439 1 0.321428 2.8372e-05 0.1261 55.845 -3.12011e-07 
440 1 0.32143 0.0356701 0.168322 55.845 2.53088e-07 
441 1 0.357122 0.0356822 0.12608 55.845 -4.12774e-07 
442 1 0.357122 0.0714532 0.168263 55.845 1.139e-07 
517 1 0.285714 0.107143 0.0416667 55.845 -3.27278e-07 
527 1 0.25 0 0.0416667 55.845 -1.26148e-07 
529 1 0.285714 0.0357143 0.0416667 55.845 -1.7769e-07 
530 1 0.285682 0.0714494 0.083874 55.845 4.68601e-07 
531 1 0.321429 0.0714286 0.0416667 55.845 -2.79158e-07 
532 1 0.32142 0.107112 0.0838056 55.845 4.12786e-07 
533 1 0.357143 0.107143 0.0416667 55.845 -2.4716e-07 
603 1 0.357143 0.0714286 0 55.845 5.9632e-08 
541 1 0.321429 0 0.0416667 55.845 -2.75126e-07 
542 1 0.32144 0.0357474 0.0838535 55.845 4.49412e-07 
543 1 0.357143 0.0357143 0.0416667 55.845 -3.68695e-07 
544 1 0.357191 0.0714592 0.083947 55.845 2.82226e-07 
602 1 0.321429 0.0357143 0 55.845 1.0626e-07 
596 1 0.285714 0.0714286 0 55.845 1.16795e-07 
597 1 0.321429 0.107143 0 55.845 1.3528e-07 
612 1 0.464286 0.0357143 0 55.845 8.99835e-08 
611 1 0.428571 0 0 55.845 1.38645e-07 
610 1 0.464286 0.107143 0 55.845 6.33974e-08 
609 1 0.428571 0.0714286 0 55.845 2.84188e-08 
608 1 0.392857 0.0357143 0 55.845 3.64003e-09 
341 1 0.392749 0.0713936 0.210204 55.845 -3.3671e-07 
343 1 0.428581 0.107118 0.210179 55.845 -1.89479e-07 
348 1 0.392905 -3.78279e-05 0.210094 55.845 -3.45708e-07 
350 1 0.428588 0.0357274 0.210134 55.845 -2.99402e-07 
352 1 0.464249 0.0714705 0.210061 55.845 -3.09651e-07 
355 1 0.464217 2.69387e-05 0.20997 55.845 -3.11644e-07 
443 1 0.392801 0.0713878 0.126066 55.845 -4.18154e-07 
444 1 0.392812 0.107093 0.168341 55.845 2.24526e-07 
445 1 0.42856 0.107175 0.126166 55.845 -4.22396e-07 
604 1 0.392857 0.107143 0 55.845 9.95759e-08 
450 1 0.392935 -4.10034e-05 0.126186 55.845 -5.20132e-07 
451 1 0.392844 0.0357309 0.168262 55.845 1.05009e-07 
452 1 0.428644 0.0356991 0.126149 55.845 -3.95903e-07 
453 1 0.428462 0.0714368 0.168402 55.845 1.57712e-07 
454 1 0.46424 0.0714748 0.126084 55.845 -3.35347e-07 
455 1 0.464252 0.107147 0.168308 55.845 2.09027e-07 
456 1 0.428567 -1.4608e-05 0.168349 55.845 2.22226e-07 
457 1 0.464274 5.25482e-05 0.126183 55.845 -4.37611e-07 
458 1 0.464272 0.0357209 0.168408 55.845 1.92307e-07 
545 1 0.392857 0.0714286 0.0416667 55.845 -3.33116e-07 
546 1 0.392907 0.107191 0.0839813 55.845 4.26677e-07 
547 1 0.428571 0.107143 0.0416667 55.845 -2.44812e-07 
552 1 0.392857 0 0.0416667 55.845 -2.88488e-07 
553 1 0.39288 0.0356968 0.0840114 55.845 2.82131e-07 
554 1 0.428571 0.0357143 0.0416667 55.845 -2.90126e-07 
555 1 0.428552 0.0714776 0.0839312 55.845 3.63671e-07 
556 1 0.464286 0.0714286 0.0416667 55.845 -2.09374e-07 
557 1 0.464262 0.107169 0.0839964 55.845 3.26202e-07 
558 1 0.428585 -8.57705e-06 0.0839915 55.845 3.82737e-07 
559 1 0.464286 0 0.0416667 55.845 -2.60629e-07 
560 1 0.464314 0.0357822 0.0839245 55.845 4.0862e-07 
255 1 -3.22321e-05 0.178655 0.210247 55.845 -1.82796e-07 
257 1 0.0356993 0.214257 0.210193 55.845 -1.33354e-07 
261 1 0.0356922 0.142838 0.210114 55.845 -3.10404e-07 
263 1 0.0713811 0.178568 0.210255 55.845 -1.75089e-07 
265 1 0.107178 0.214148 0.210106 55.845 -3.2533e-07 
273 1 0.107114 0.142838 0.210084 55.845 -2.01298e-07 
357 1 -2.27199e-05 0.178633 0.126171 55.845 -2.65862e-07 
358 1 -1.92076e-05 0.214273 0.168314 55.845 3.68941e-07 
359 1 0.0357586 0.21426 0.126141 55.845 -3.53822e-07 
360 1 0.0357032 0.249954 0.168379 55.845 2.6915e-07 
362 1 4.57331e-05 0.142889 0.168506 55.845 2.13719e-07 
363 1 0.0357314 0.142797 0.126058 55.845 -2.38053e-07 
364 1 0.0356712 0.178479 0.168303 55.845 3.94896e-07 
365 1 0.0714458 0.178577 0.126149 55.845 -4.02991e-07 
366 1 0.0713926 0.214194 0.168369 55.845 2.70416e-07 
367 1 0.107132 0.214248 0.12621 55.845 -4.6316e-07 
368 1 0.107195 0.249913 0.168273 55.845 1.4293e-07 
374 1 0.0714014 0.142908 0.168398 55.845 2.48141e-07 
375 1 0.107104 0.142859 0.126179 55.845 -3.29223e-07 
376 1 0.107165 0.178541 0.168443 55.845 2.20613e-07 
459 1 0 0.178571 0.0416667 55.845 -1.99775e-07 
460 1 -5.55137e-05 0.214365 0.0839462 55.845 4.82981e-07 
461 1 0.0357143 0.214286 0.0416667 55.845 -2.91036e-07 
462 1 0.0357467 0.24999 0.0838727 55.845 4.58855e-07 
464 1 2.48893e-05 0.142872 0.0838866 55.845 5.36984e-07 
465 1 0.0357143 0.142857 0.0416667 55.845 -2.43334e-07 
466 1 0.035766 0.178566 0.0839393 55.845 4.68212e-07 
467 1 0.0714286 0.178571 0.0416667 55.845 -3.53782e-07 
468 1 0.0714238 0.214215 0.0838747 55.845 4.28553e-07 
469 1 0.107143 0.214286 0.0416667 55.845 -2.6657e-07 
470 1 0.107189 0.250002 0.0839707 55.845 4.18869e-07 
476 1 0.071441 0.14285 0.0838221 55.845 3.23125e-07 
477 1 0.107143 0.142857 0.0416667 55.845 -3.71234e-07 
478 1 0.107119 0.178542 0.0839081 55.845 3.21098e-07 
561 1 0 0.214286 0 55.845 2.89832e-08 
562 1 0.0357143 0.25 0 55.845 8.8225e-08 
563 1 0 0.142857 0 55.845 1.34094e-07 
564 1 0.0357143 0.178571 0 55.845 3.47631e-08 
565 1 0.0714286 0.214286 0 55.845 6.37238e-08 
566 1 0.107143 0.25 0 55.845 2.42836e-07 
569 1 0.0714286 0.142857 0 55.845 -4.76544e-08 
570 1 0.107143 0.178571 0 55.845 -2.66709e-08 
275 1 0.142891 0.178513 0.210224 55.845 -2.22527e-07 
277 1 0.178607 0.214248 0.210261 55.845 -2.39961e-07 
287 1 0.178646 0.1428 0.210161 55.845 -8.95511e-08 
289 1 0.214324 0.178493 0.210253 55.845 -1.21731e-07 
291 1 0.249993 0.214304 0.210182 55.845 -2.13174e-07 
301 1 0.250017 0.142894 0.210268 55.845 -2.29259e-07 
377 1 0.142808 0.178511 0.126271 55.845 -3.91363e-07 
378 1 0.142864 0.214248 0.168315 55.845 2.34403e-07 
379 1 0.178642 0.214223 0.126302 55.845 -4.26483e-07 
388 1 0.142917 0.142841 0.168407 55.845 3.58823e-07 
389 1 0.178621 0.142834 0.126227 55.845 -3.16617e-07 
390 1 0.178589 0.17845 0.168405 55.845 3.78377e-07 
391 1 0.214284 0.178557 0.126181 55.845 -2.85435e-07 
392 1 0.214335 0.214211 0.168425 55.845 3.02876e-07 
393 1 0.249975 0.214297 0.126168 55.845 -4.25467e-07 
402 1 0.214284 0.142895 0.168447 55.845 2.91602e-07 
403 1 0.25002 0.142865 0.126147 55.845 -3.07422e-07 
404 1 0.250092 0.178566 0.168446 55.845 2.92025e-07 
479 1 0.142857 0.178571 0.0416667 55.845 -3.16331e-07 
480 1 0.142836 0.214298 0.0839837 55.845 4.04148e-07 
481 1 0.178571 0.214286 0.0416667 55.845 -2.27197e-07 
490 1 0.142832 0.14284 0.0839039 55.845 5.15935e-07 
491 1 0.178571 0.142857 0.0416667 55.845 -2.62489e-07 
492 1 0.178556 0.178472 0.0839617 55.845 5.20952e-07 
493 1 0.214286 0.178571 0.0416667 55.845 -2.5545e-07 
494 1 0.214283 0.214292 0.0838029 55.845 4.71684e-07 
495 1 0.25 0.214286 0.0416667 55.845 -3.36468e-07 
504 1 0.214302 0.142847 0.083943 55.845 4.50773e-07 
505 1 0.25 0.142857 0.0416667 55.845 -3.30955e-07 
506 1 0.250006 0.178606 0.0841494 55.845 2.44059e-07 
571 1 0.142857 0.214286 0 55.845 1.86099e-07 
576 1 0.142857 0.142857 0 55.845 -3.51054e-08 
577 1 0.178571 0.178571 0 55.845 1.23452e-07 
578 1 0.214286 0.214286 0 55.845 1.15254e-07 
583 1 0.214286 0.142857 0 55.845 3.63828e-08 
584 1 0.25 0.178571 0 55.845 5.95417e-09 
303 1 0.285726 0.178569 0.210366 55.845 -1.67283e-07 
305 1 0.32145 0.21431 0.210025 55.845 -3.22536e-07 
315 1 0.321417 0.142828 0.210175 55.845 -2.74115e-07 
317 1 0.35719 0.178568 0.210219 55.845 -2.60848e-07 
405 1 0.28573 0.178559 0.126148 55.845 -4.49468e-07 
406 1 0.285703 0.214279 0.168333 55.845 2.24151e-07 
407 1 0.32148 0.214255 0.126094 55.845 -3.68158e-07 
416 1 0.285667 0.14286 0.168399 55.845 2.40941e-07 
417 1 0.321353 0.142834 0.126112 55.845 -4.08853e-07 
418 1 0.321495 0.178572 0.168333 55.845 2.50172e-07 
419 1 0.357156 0.178572 0.126156 55.845 -2.95739e-07 
420 1 0.357216 0.214293 0.168383 55.845 2.35057e-07 
432 1 0.357103 0.142891 0.168414 55.845 3.13699e-07 
507 1 0.285714 0.178571 0.0416667 55.845 -3.93698e-07 
508 1 0.285733 0.214262 0.0838402 55.845 3.72881e-07 
509 1 0.321429 0.214286 0.0416667 55.845 -2.93119e-07 
518 1 0.285708 0.142919 0.0839445 55.845 2.58289e-07 
519 1 0.321429 0.142857 0.0416667 55.845 -2.71478e-07 
520 1 0.32145 0.178638 0.0837968 55.845 4.58616e-07 
521 1 0.357143 0.178571 0.0416667 55.845 -1.26373e-07 
522 1 0.357184 0.214302 0.083937 55.845 4.12879e-07 
534 1 0.357153 0.142884 0.0838755 55.845 5.06236e-07 
585 1 0.285714 0.214286 0 55.845 5.70994e-08 
590 1 0.285714 0.142857 0 55.845 4.13111e-08 
591 1 0.321429 0.178571 0 55.845 1.50324e-07 
592 1 0.357143 0.214286 0 55.845 1.01993e-07 
598 1 0.357143 0.142857 0 55.845 1.92649e-07 
319 1 0.392853 0.214315 0.210126 55.845 -2.41698e-07 
321 1 0.428592 0.250055 0.210134 55.845 -1.87277e-07 
331 1 0.392836 0.142777 0.21021 55.845 -2.65508e-07 
333 1 0.428536 0.178605 0.210273 55.845 -3.17607e-07 
335 1 0.464245 0.214265 0.210042 55.845 -4.01815e-07 
345 1 0.464239 0.142856 0.210117 55.845 -2.72012e-07 
606 1 0.464286 0.178571 0 55.845 1.08954e-09 
421 1 0.392867 0.214341 0.126172 55.845 -3.11026e-07 
422 1 0.392814 0.250072 0.168425 55.845 2.84638e-07 
423 1 0.428596 0.249959 0.126214 55.845 -4.02608e-07 
433 1 0.392856 0.142833 0.126149 55.845 -2.95434e-07 
434 1 0.392811 0.178572 0.168367 55.845 2.35725e-07 
435 1 0.428481 0.178623 0.126177 55.845 -3.50322e-07 
436 1 0.428505 0.214304 0.168296 55.845 2.13822e-07 
437 1 0.46428 0.214263 0.12623 55.845 -4.76613e-07 
605 1 0.428571 0.142857 0 55.845 8.66942e-08 
446 1 0.428508 0.142828 0.168399 55.845 1.89789e-07 
447 1 0.464295 0.142866 0.126199 55.845 -3.84239e-07 
448 1 0.464296 0.178564 0.168435 55.845 1.42328e-07 
523 1 0.392857 0.214286 0.0416667 55.845 -2.53544e-07 
524 1 0.392861 0.250002 0.0838578 55.845 3.54171e-07 
525 1 0.428571 0.25 0.0416667 55.845 -4.04083e-07 
535 1 0.392857 0.142857 0.0416667 55.845 -1.19395e-07 
536 1 0.392831 0.178642 0.0838908 55.845 5.58903e-07 
537 1 0.428571 0.178571 0.0416667 55.845 -2.72779e-07 
538 1 0.428579 0.214292 0.0838847 55.845 3.78391e-07 
539 1 0.464286 0.214286 0.0416667 55.845 -3.95054e-07 
548 1 0.428574 0.142925 0.0839515 55.845 4.77085e-07 
549 1 0.464286 0.142857 0.0416667 55.845 -2.67651e-07 
550 1 0.464303 0.178578 0.0839913 55.845 2.89127e-07 
593 1 0.392857 0.25 0 55.845 -4.06927e-08 
599 1 0.392857 0.178571 0 55.845 1.76724e-07 
600 1 0.428571 0.214286 0 55.845 4.71804e-08 
3 1 -2.37599e-05 0.10714 0.460471 55.845 -9.0158e-07 
7 1 1.14922e-05 0.0356745 0.460509 55.845 -7.68614e-07 
8 1 0.0356951 0.0713811 0.460564 55.845 -8.19618e-07 
9 1 0.0713636 0.107088 0.460403 55.845 -8.24522e-07 
13 1 0.0356392 -1.47814e-05 0.460468 55.845 -7.3853e-07 
14 1 0.0713404 0.0357041 0.460457 55.845 -8.11601e-07 
15 1 0.107124 0.0714701 0.460454 55.845 -8.6679e-07 
20 1 0.107066 4.26926e-05 0.460422 55.845 -8.27699e-07 
55 1 5.54273e-06 0.107176 0.377186 55.845 -2.27484e-07 
63 1 1.74369e-05 0.0356934 0.377024 55.845 -3.29337e-08 
64 1 3.06925e-05 0.0713961 0.419095 55.845 3.02044e-07 
65 1 0.0357677 0.0714827 0.377109 55.845 -1.65534e-07 
66 1 0.0356563 0.107065 0.419002 55.845 1.14875e-07 
67 1 0.0714181 0.107134 0.377085 55.845 -1.99913e-07 
74 1 -2.10797e-05 -3.42171e-05 0.418979 55.845 3.21876e-07 
75 1 0.0356848 -1.36069e-05 0.377182 55.845 -1.91371e-07 
76 1 0.0357027 0.0357656 0.418874 55.845 3.11624e-07 
77 1 0.0714243 0.0357604 0.377052 55.845 -2.43758e-07 
78 1 0.0714949 0.0714238 0.419004 55.845 2.08755e-07 
79 1 0.107202 0.0714256 0.37709 55.845 -1.75453e-07 
80 1 0.107114 0.107175 0.418989 55.845 2.08255e-07 
88 1 0.0713539 1.01811e-05 0.418991 55.845 1.41984e-07 
89 1 0.107169 -2.16055e-05 0.37713 55.845 -2.33591e-07 
90 1 0.10711 0.035689 0.419044 55.845 1.93296e-07 
157 1 -5.37831e-05 0.107149 0.292604 55.845 4.42915e-07 
165 1 4.24037e-05 0.0357025 0.29258 55.845 5.61727e-07 
166 1 -2.0465e-05 0.0713812 0.334601 55.845 -5.1158e-08 
167 1 0.0357073 0.0714547 0.292516 55.845 3.69122e-07 
168 1 0.0356626 0.107114 0.334607 55.845 -2.53123e-07 
169 1 0.0714495 0.107115 0.292645 55.845 3.97268e-07 
176 1 2.22336e-05 -2.58859e-05 0.334601 55.845 3.66391e-08 
177 1 0.0357692 -7.55019e-06 0.292648 55.845 4.43361e-07 
178 1 0.035794 0.0356976 0.334519 55.845 -1.09693e-07 
179 1 0.0715185 0.0356452 0.292553 55.845 3.57892e-07 
180 1 0.07147 0.0714158 0.334521 55.845 -2.29333e-07 
181 1 0.107194 0.0714433 0.29262 55.845 4.28202e-07 
182 1 0.107163 0.107174 0.334678 55.845 -1.05995e-07 
190 1 0.0714632 4.03716e-06 0.334623 55.845 -1.78002e-07 
191 1 0.107135 -7.52126e-05 0.292646 55.845 4.51375e-07 
192 1 0.10717 0.0357095 0.334569 55.845 -1.17462e-07 
268 1 3.42891e-05 0.071346 0.251468 55.845 -2.73209e-09 
270 1 0.0356758 0.107148 0.251537 55.845 -1.82736e-07 
278 1 6.28252e-05 1.81443e-05 0.251455 55.845 8.07893e-08 
280 1 0.035776 0.035731 0.251299 55.845 -1.85231e-07 
282 1 0.0713983 0.0713838 0.251308 55.845 -1.96773e-07 
284 1 0.107116 0.107114 0.251412 55.845 -5.43224e-08 
292 1 0.071408 -8.14732e-06 0.251333 55.845 -1.88956e-07 
294 1 0.107191 0.0357315 0.251399 55.845 -9.57741e-08 
16 1 0.14285 0.107128 0.46045 55.845 -8.20788e-07 
21 1 0.14285 0.0357137 0.460419 55.845 -8.50709e-07 
22 1 0.178612 0.0713835 0.460523 55.845 -9.78179e-07 
23 1 0.21433 0.107122 0.460584 55.845 -8.37595e-07 
27 1 0.178516 -1.97259e-05 0.460406 55.845 -8.01023e-07 
28 1 0.214292 0.0356597 0.460448 55.845 -9.24361e-07 
29 1 0.249948 0.0714287 0.46058 55.845 -8.68164e-07 
81 1 0.142898 0.107109 0.377127 55.845 -1.68139e-07 
91 1 0.142892 0.0356144 0.377071 55.845 -1.24603e-07 
92 1 0.14285 0.0714309 0.418966 55.845 2.1768e-07 
93 1 0.17854 0.0713054 0.377116 55.845 -8.1075e-08 
94 1 0.178626 0.107167 0.41908 55.845 2.24826e-07 
95 1 0.214311 0.107102 0.377182 55.845 -1.73723e-07 
102 1 0.142787 -0.000100428 0.418982 55.845 1.58378e-07 
103 1 0.178523 -6.94902e-05 0.377091 55.845 -3.49412e-07 
104 1 0.178557 0.0356628 0.418974 55.845 1.23439e-07 
105 1 0.214213 0.0357242 0.377157 55.845 -2.48936e-07 
106 1 0.214295 0.0713515 0.419138 55.845 2.01858e-07 
107 1 0.250023 0.07146 0.37714 55.845 -1.91242e-07 
108 1 0.250029 0.107126 0.419147 55.845 3.43711e-07 
118 1 0.214309 -5.93442e-05 0.419133 55.845 1.43855e-07 
120 1 0.249973 0.035709 0.418943 55.845 1.50055e-07 
183 1 0.142871 0.107086 0.29264 55.845 4.56614e-07 
193 1 0.142931 0.0356801 0.292554 55.845 5.27255e-07 
194 1 0.142868 0.0714294 0.334657 55.845 -6.59375e-08 
195 1 0.178563 0.071369 0.292626 55.845 4.91089e-07 
196 1 0.178632 0.107126 0.334502 55.845 -1.9501e-07 
197 1 0.214307 0.107064 0.292617 55.845 3.55868e-07 
204 1 0.142845 -5.3991e-05 0.334626 55.845 -7.08606e-08 
205 1 0.178639 -6.62945e-05 0.292677 55.845 4.40693e-07 
206 1 0.178574 0.0356399 0.334638 55.845 -1.00729e-07 
207 1 0.214279 0.0356775 0.292728 55.845 3.84033e-07 
208 1 0.214281 0.0713706 0.334608 55.845 -1.9341e-07 
209 1 0.249988 0.0713955 0.292679 55.845 2.84874e-07 
210 1 0.249938 0.107114 0.334588 55.845 -1.30077e-07 
220 1 0.214338 -4.27903e-06 0.334669 55.845 -2.44807e-07 
222 1 0.250065 0.0356934 0.334684 55.845 -2.54708e-07 
296 1 0.14282 0.0713811 0.251343 55.845 4.34798e-09 
298 1 0.17852 0.107126 0.251376 55.845 -2.30049e-08 
306 1 0.142874 -3.11485e-05 0.251357 55.845 -1.05802e-07 
308 1 0.178614 0.0357033 0.251334 55.845 2.14952e-08 
310 1 0.214233 0.0713895 0.251423 55.845 -9.89738e-08 
312 1 0.249954 0.107152 0.251425 55.845 -1.05981e-07 
322 1 0.214336 -8.11382e-05 0.251323 55.845 -3.9595e-08 
324 1 0.250046 0.0356673 0.251389 55.845 -8.74806e-08 
30 1 0.285785 0.107123 0.460433 55.845 -7.65214e-07 
35 1 0.250018 -2.00591e-06 0.460442 55.845 -1.00584e-06 
36 1 0.285723 0.0356968 0.460487 55.845 -8.95768e-07 
37 1 0.321503 0.071447 0.460502 55.845 -8.06309e-07 
38 1 0.357214 0.107168 0.460538 55.845 -8.58671e-07 
42 1 0.321468 -4.61043e-05 0.460468 55.845 -8.79247e-07 
43 1 0.357156 0.0357283 0.460365 55.845 -9.37355e-07 
109 1 0.285732 0.107145 0.377195 55.845 -1.59047e-07 
119 1 0.250002 -5.90658e-05 0.377169 55.845 -3.02818e-07 
121 1 0.285757 0.0357169 0.377159 55.845 -9.10501e-08 
122 1 0.28574 0.0714693 0.419129 55.845 1.95168e-07 
123 1 0.321359 0.0714367 0.377097 55.845 -3.55988e-07 
124 1 0.321507 0.107168 0.419126 55.845 2.01244e-07 
125 1 0.3572 0.107133 0.377111 55.845 -2.17965e-07 
133 1 0.32138 -8.18406e-06 0.377102 55.845 -1.45422e-07 
134 1 0.321448 0.0357377 0.419032 55.845 2.10286e-07 
135 1 0.357125 0.0357882 0.377086 55.845 -2.94654e-07 
136 1 0.35718 0.0715019 0.418911 55.845 4.5117e-08 
211 1 0.285641 0.107104 0.29264 55.845 4.63887e-07 
221 1 0.250054 -1.48051e-05 0.2927 55.845 4.34572e-07 
223 1 0.285772 0.0357425 0.292582 55.845 3.44948e-07 
224 1 0.285715 0.0714164 0.334598 55.845 -2.28358e-07 
225 1 0.321443 0.0714357 0.292705 55.845 3.33344e-07 
226 1 0.321436 0.107068 0.334631 55.845 -1.46222e-07 
227 1 0.357143 0.10711 0.292698 55.845 4.63137e-07 
235 1 0.32142 -2.10115e-05 0.292582 55.845 5.08319e-07 
236 1 0.321483 0.0356836 0.334501 55.845 -1.91474e-07 
237 1 0.357162 0.035727 0.292635 55.845 4.56828e-07 
238 1 0.357118 0.0714367 0.334612 55.845 -2.14421e-07 
326 1 0.285765 0.0714034 0.25135 55.845 -1.81019e-07 
328 1 0.321391 0.10714 0.251476 55.845 -1.22195e-07 
338 1 0.321473 0.0356548 0.251347 55.845 -1.18371e-07 
340 1 0.357102 0.0714093 0.251336 55.845 -1.3633e-07 
44 1 0.392865 0.0714193 0.460435 55.845 -9.94099e-07 
45 1 0.428668 0.107149 0.46048 55.845 -7.5402e-07 
47 1 0.392856 1.72749e-05 0.460501 55.845 -7.10352e-07 
48 1 0.428566 0.0356767 0.460392 55.845 -8.2823e-07 
49 1 0.464292 0.0713568 0.460527 55.845 -8.72182e-07 
50 1 0.464289 -9.47046e-05 0.460466 55.845 -8.44708e-07 
137 1 0.392959 0.0713923 0.377179 55.845 -3.03242e-07 
138 1 0.392851 0.107123 0.419002 55.845 1.23838e-07 
139 1 0.428605 0.107159 0.377175 55.845 -2.67748e-08 
144 1 0.392828 -1.13746e-05 0.376888 55.845 -2.05625e-07 
145 1 0.392914 0.0357166 0.418879 55.845 5.9371e-08 
146 1 0.428596 0.0357431 0.377086 55.845 -1.95565e-07 
147 1 0.428663 0.0713756 0.419058 55.845 1.55014e-07 
148 1 0.464273 0.0713498 0.377107 55.845 -8.8442e-09 
149 1 0.464364 0.107102 0.418818 55.845 3.48392e-07 
150 1 0.428575 -1.76714e-05 0.418956 55.845 1.42038e-07 
151 1 0.464223 -7.49754e-05 0.377055 55.845 -1.2043e-07 
152 1 0.464302 0.0355819 0.418981 55.845 2.55263e-07 
239 1 0.392895 0.0714483 0.292543 55.845 4.75165e-07 
240 1 0.392901 0.10712 0.334599 55.845 -5.08025e-08 
241 1 0.428596 0.107182 0.292628 55.845 5.66422e-07 
246 1 0.392835 -6.71498e-05 0.292627 55.845 4.32833e-07 
247 1 0.392843 0.035674 0.334548 55.845 -5.43133e-08 
248 1 0.428546 0.0356799 0.292548 55.845 3.82359e-07 
249 1 0.428607 0.0714506 0.334432 55.845 -2.63513e-08 
250 1 0.464325 0.0714426 0.292444 55.845 3.6103e-07 
251 1 0.46428 0.107102 0.334617 55.845 4.97954e-08 
252 1 0.428545 -7.71525e-05 0.334484 55.845 -1.5417e-07 
253 1 0.464212 -6.48121e-06 0.292517 55.845 5.05966e-07 
254 1 0.464204 0.0357012 0.334468 55.845 -1.00911e-07 
342 1 0.392859 0.107108 0.251352 55.845 -4.30316e-08 
349 1 0.39287 0.0356483 0.251335 55.845 -1.24732e-07 
351 1 0.428542 0.0713741 0.251443 55.845 -1.24516e-07 
353 1 0.464296 0.107093 0.251301 55.845 4.03227e-08 
354 1 0.428556 -2.69307e-05 0.251294 55.845 -1.38143e-07 
356 1 0.464287 0.0356958 0.251371 55.845 -1.71793e-07 
1 1 -8.91021e-05 0.178622 0.460516 55.845 -9.73267e-07 
2 1 0.0356895 0.214364 0.460575 55.845 -8.55779e-07 
4 1 0.0356221 0.142835 0.460513 55.845 -1.00149e-06 
5 1 0.071394 0.17858 0.460601 55.845 -9.29472e-07 
6 1 0.107107 0.214284 0.460573 55.845 -6.68892e-07 
10 1 0.107094 0.142893 0.460493 55.845 -7.6135e-07 
51 1 2.80723e-06 0.178509 0.377135 55.845 -1.80094e-07 
52 1 7.89242e-07 0.214288 0.41908 55.845 2.43359e-07 
53 1 0.0357073 0.214275 0.377168 55.845 -4.66384e-08 
54 1 0.0356597 0.250029 0.419198 55.845 1.7529e-07 
56 1 -7.81168e-05 0.14284 0.419117 55.845 1.34819e-07 
57 1 0.0356718 0.142858 0.377109 55.845 -2.47726e-07 
58 1 0.0357423 0.178544 0.419118 55.845 2.12275e-07 
59 1 0.0714253 0.178517 0.377044 55.845 -1.58142e-07 
60 1 0.0714308 0.214285 0.41906 55.845 2.42191e-07 
61 1 0.107084 0.214267 0.377186 55.845 -1.96501e-08 
62 1 0.107054 0.250017 0.419194 55.845 3.21821e-07 
68 1 0.0713786 0.142863 0.419049 55.845 1.72048e-07 
69 1 0.107069 0.142831 0.377055 55.845 -1.43283e-07 
70 1 0.10711 0.178607 0.418971 55.845 2.89813e-07 
153 1 5.38545e-05 0.178586 0.292526 55.845 3.34145e-07 
154 1 -3.05487e-05 0.214289 0.334727 55.845 -5.18019e-08 
155 1 0.0356464 0.214277 0.292672 55.845 5.57064e-07 
156 1 0.0356994 0.250013 0.334629 55.845 5.04938e-08 
158 1 6.35873e-05 0.142851 0.33455 55.845 -3.25055e-07 
159 1 0.0357626 0.142806 0.292521 55.845 2.90524e-07 
160 1 0.0356909 0.178564 0.334666 55.845 -1.96333e-07 
161 1 0.0714405 0.178572 0.292579 55.845 4.58612e-07 
162 1 0.0714216 0.214283 0.33474 55.845 4.75523e-08 
163 1 0.107118 0.214225 0.29265 55.845 6.05485e-07 
164 1 0.107138 0.249969 0.334548 55.845 1.06635e-07 
170 1 0.0714438 0.142892 0.334569 55.845 -1.86353e-07 
171 1 0.107205 0.142889 0.292573 55.845 4.4392e-07 
172 1 0.107146 0.178542 0.334657 55.845 -5.88915e-08 
256 1 -6.39652e-05 0.214257 0.251422 55.845 9.34525e-09 
258 1 0.0357628 0.249968 0.251429 55.845 -4.43007e-08 
260 1 4.80693e-06 0.142866 0.251286 55.845 -1.87989e-07 
262 1 0.0356768 0.17856 0.251527 55.845 -3.41272e-08 
264 1 0.0714861 0.214306 0.251469 55.845 -2.29646e-08 
266 1 0.107092 0.249894 0.251361 55.845 -8.99702e-08 
272 1 0.0714037 0.142846 0.251396 55.845 -6.81965e-08 
274 1 0.107197 0.178554 0.251381 55.845 -2.16653e-08 
11 1 0.142802 0.178588 0.460578 55.845 -8.13509e-07 
12 1 0.178581 0.214329 0.460405 55.845 -8.06591e-07 
17 1 0.17859 0.14288 0.460544 55.845 -7.21602e-07 
18 1 0.214273 0.178624 0.4606 55.845 -8.21464e-07 
19 1 0.250002 0.214357 0.460493 55.845 -9.51485e-07 
24 1 0.250018 0.142875 0.460593 55.845 -7.96455e-07 
71 1 0.142887 0.178556 0.377129 55.845 -1.41818e-07 
72 1 0.142803 0.214269 0.419012 55.845 2.62633e-07 
73 1 0.178543 0.214252 0.377105 55.845 -9.49838e-08 
82 1 0.142853 0.142958 0.419143 55.845 2.35793e-07 
83 1 0.178611 0.142798 0.377281 55.845 -2.88512e-07 
84 1 0.178611 0.178569 0.419147 55.845 1.96236e-07 
85 1 0.214286 0.178553 0.377208 55.845 -2.29736e-07 
86 1 0.214254 0.214291 0.418974 55.845 2.01145e-07 
87 1 0.249998 0.214211 0.377154 55.845 -3.14475e-07 
96 1 0.214363 0.142884 0.419074 55.845 2.3406e-07 
97 1 0.250068 0.142838 0.377151 55.845 -1.00151e-07 
98 1 0.249991 0.17862 0.419067 55.845 1.60397e-07 
173 1 0.142925 0.178534 0.292581 55.845 4.54878e-07 
174 1 0.14285 0.214295 0.334618 55.845 4.14964e-08 
175 1 0.178538 0.214205 0.292691 55.845 4.77482e-07 
184 1 0.142965 0.14283 0.334656 55.845 -1.47002e-07 
185 1 0.178557 0.142823 0.292626 55.845 4.19357e-07 
186 1 0.178582 0.178545 0.334616 55.845 -1.41151e-07 
187 1 0.21431 0.178546 0.292752 55.845 5.37055e-07 
188 1 0.21431 0.214255 0.334494 55.845 -8.31902e-08 
189 1 0.250096 0.214214 0.292755 55.845 5.17577e-07 
198 1 0.214321 0.14283 0.334597 55.845 -1.49085e-07 
199 1 0.249993 0.142881 0.292692 55.845 5.60072e-07 
200 1 0.249953 0.17854 0.334777 55.845 -5.69855e-08 
276 1 0.142846 0.214278 0.251434 55.845 -1.09475e-07 
286 1 0.142903 0.142832 0.251447 55.845 -3.71136e-08 
288 1 0.178569 0.178606 0.251413 55.845 -5.87441e-08 
290 1 0.214288 0.214239 0.25154 55.845 -3.75638e-09 
300 1 0.214322 0.142864 0.251488 55.845 -2.26059e-08 
302 1 0.250025 0.17852 0.251449 55.845 3.88787e-08 
25 1 0.285794 0.178565 0.460513 55.845 -7.70612e-07 
26 1 0.321503 0.214275 0.460545 55.845 -9.06882e-07 
31 1 0.321555 0.142878 0.460535 55.845 -8.79782e-07 
32 1 0.357207 0.178545 0.460644 55.845 -7.85787e-07 
99 1 0.285794 0.178528 0.37707 55.845 -1.86144e-07 
100 1 0.28574 0.214263 0.419192 55.845 2.0062e-07 
101 1 0.321488 0.214349 0.377196 55.845 -2.00713e-07 
110 1 0.285734 0.142907 0.4191 55.845 2.52787e-07 
111 1 0.321437 0.142884 0.377186 55.845 -7.50651e-08 
112 1 0.321518 0.178589 0.419126 55.845 2.27119e-07 
113 1 0.357151 0.178609 0.377143 55.845 -1.18303e-07 
114 1 0.357155 0.214206 0.419003 55.845 2.88167e-07 
126 1 0.357125 0.142905 0.419041 55.845 3.01708e-07 
201 1 0.285726 0.178562 0.292813 55.845 6.05567e-07 
202 1 0.28578 0.214283 0.334574 55.845 -1.40257e-07 
203 1 0.321469 0.214341 0.292661 55.845 4.69496e-07 
212 1 0.285739 0.142861 0.334628 55.845 1.70877e-08 
213 1 0.321397 0.142883 0.292857 55.845 4.80406e-07 
214 1 0.32147 0.178658 0.334753 55.845 -9.20765e-08 