ITEM: TIMESTEP
4300
ITEM: NUMBER OF ATOMS
5880
ITEM: BOX BOUNDS pp pp ff
-27.8974 27.8974
-27.8974 27.8974
0 34.092
ITEM: ATOMS id type xs ys zs mass q 
259 1 -1.05042e-06 0.107059 0.210792 55.845 3.35249e-08 
267 1 -3.60234e-05 0.0356767 0.21084 55.845 -2.491e-07 
269 1 0.0357346 0.071414 0.210806 55.845 -6.93219e-08 
271 1 0.0713316 0.107103 0.210728 55.845 7.35448e-08 
279 1 0.0356711 -8.42892e-05 0.210813 55.845 -4.59141e-07 
281 1 0.0713858 0.0356369 0.210833 55.845 -4.31002e-07 
283 1 0.107123 0.071344 0.210681 55.845 -2.31778e-07 
293 1 0.107121 -4.66778e-05 0.210792 55.845 -2.90102e-07 
361 1 2.68283e-05 0.10702 0.127007 55.845 -6.65022e-08 
369 1 4.0067e-05 0.0356073 0.126948 55.845 -4.004e-07 
370 1 5.54949e-06 0.071385 0.169083 55.845 -1.31231e-07 
371 1 0.0357167 0.0714063 0.126769 55.845 -7.8808e-08 
372 1 0.0356517 0.107054 0.16913 55.845 -6.35897e-09 
373 1 0.0714051 0.107119 0.126893 55.845 -2.43367e-08 
380 1 -0.000104698 -0.000118436 0.169164 55.845 7.86566e-08 
381 1 0.0356576 1.96551e-05 0.126941 55.845 -3.29673e-07 
382 1 0.0356877 0.0357052 0.169173 55.845 3.23577e-07 
383 1 0.0713802 0.0357377 0.126971 55.845 -3.756e-07 
384 1 0.0714118 0.071364 0.169089 55.845 1.39432e-07 
385 1 0.107124 0.0713964 0.126915 55.845 -3.87384e-07 
386 1 0.107091 0.107143 0.169039 55.845 3.07546e-07 
394 1 0.0714306 -1.97879e-05 0.169191 55.845 8.95711e-08 
395 1 0.107165 1.49247e-05 0.126861 55.845 -3.15302e-07 
396 1 0.107141 0.0356781 0.169082 55.845 5.48954e-07 
463 1 0 0.107143 0.0416667 55.845 7.68617e-07 
471 1 0 0.0357143 0.0416667 55.845 8.22504e-07 
472 1 -1.81575e-05 0.0714042 0.084408 55.845 4.53313e-08 
473 1 0.0357143 0.0714286 0.0416667 55.845 6.46122e-07 
474 1 0.0357362 0.107169 0.0844879 55.845 -4.52583e-07 
475 1 0.0714286 0.107143 0.0416667 55.845 5.2901e-07 
482 1 -2.96715e-05 -3.42158e-05 0.0843677 55.845 2.98282e-08 
483 1 0.0357143 0 0.0416667 55.845 6.25532e-07 
484 1 0.0356949 0.0357696 0.0844329 55.845 -2.93337e-07 
485 1 0.0714286 0.0357143 0.0416667 55.845 5.62826e-07 
486 1 0.0714399 0.0713627 0.0844318 55.845 -2.1123e-09 
487 1 0.107143 0.0714286 0.0416667 55.845 2.59648e-07 
488 1 0.107132 0.107037 0.0843457 55.845 -3.066e-07 
496 1 0.0714306 2.2738e-05 0.0844718 55.845 -2.50629e-07 
497 1 0.107143 0 0.0416667 55.845 5.30536e-07 
498 1 0.107108 0.0357279 0.0843922 55.845 -2.1147e-07 
567 1 0 0.0714286 0 55.845 -2.04257e-08 
568 1 0.0357143 0.107143 0 55.845 -1.02363e-07 
572 1 0 0 0 55.845 -1.3097e-07 
573 1 0.0357143 0.0357143 0 55.845 9.07293e-09 
574 1 0.0714286 0.0714286 0 55.845 -3.23646e-07 
575 1 0.107143 0.107143 0 55.845 -3.15105e-07 
579 1 0.0714286 0 0 55.845 -3.70709e-07 
580 1 0.107143 0.0357143 0 55.845 -2.77884e-07 
285 1 0.142819 0.107099 0.210683 55.845 -4.1131e-08 
295 1 0.142888 0.0356342 0.210781 55.845 -2.48295e-07 
297 1 0.178555 0.0714061 0.210882 55.845 -1.83541e-07 
299 1 0.214276 0.107092 0.210666 55.845 -2.65628e-07 
307 1 0.178548 -7.22482e-05 0.210714 55.845 -3.53848e-08 
309 1 0.214338 0.0357081 0.210783 55.845 -4.43236e-07 
311 1 0.24993 0.0713896 0.210673 55.845 -3.07852e-07 
387 1 0.142885 0.107087 0.126808 55.845 -3.17752e-07 
397 1 0.14282 0.03573 0.127016 55.845 -4.08674e-07 
398 1 0.14289 0.071456 0.169152 55.845 3.23859e-07 
399 1 0.178659 0.0714327 0.126825 55.845 -5.36085e-07 
400 1 0.178554 0.107136 0.169057 55.845 5.47695e-07 
401 1 0.214316 0.107133 0.126864 55.845 -3.62702e-07 
408 1 0.142928 2.77172e-05 0.169128 55.845 -4.18121e-09 
409 1 0.178557 3.32221e-05 0.126927 55.845 -2.76993e-07 
410 1 0.178586 0.0356742 0.169142 55.845 3.46292e-07 
411 1 0.214288 0.0357114 0.127092 55.845 -4.76431e-07 
412 1 0.214265 0.0713872 0.169121 55.845 2.10397e-07 
413 1 0.249964 0.0714277 0.126918 55.845 -6.82037e-07 
414 1 0.250012 0.107051 0.169132 55.845 5.56722e-07 
424 1 0.214305 -3.42996e-05 0.169119 55.845 -2.87604e-07 
426 1 0.249977 0.0357016 0.16892 55.845 2.65767e-07 
489 1 0.142857 0.107143 0.0416667 55.845 1.8303e-07 
499 1 0.142857 0.0357143 0.0416667 55.845 4.10415e-07 
500 1 0.14278 0.0713414 0.084472 55.845 2.56953e-07 
501 1 0.178571 0.0714286 0.0416667 55.845 4.04227e-07 
502 1 0.178605 0.107166 0.0842995 55.845 -1.53148e-07 
503 1 0.214286 0.107143 0.0416667 55.845 4.54176e-07 
510 1 0.142825 -4.93504e-05 0.0844942 55.845 -4.2984e-08 
511 1 0.178571 0 0.0416667 55.845 8.16885e-07 
512 1 0.178576 0.0356511 0.0844463 55.845 6.54481e-09 
513 1 0.214286 0.0357143 0.0416667 55.845 5.99106e-07 
514 1 0.214256 0.0714599 0.0844344 55.845 2.39532e-07 
515 1 0.25 0.0714286 0.0416667 55.845 3.67721e-07 
516 1 0.25003 0.107054 0.0844244 55.845 -1.5092e-07 
526 1 0.21427 -2.67656e-05 0.0844773 55.845 -1.00758e-07 
528 1 0.249969 0.0357909 0.0843774 55.845 -1.94455e-07 
581 1 0.142857 0.0714286 0 55.845 -3.49371e-07 
582 1 0.178571 0.107143 0 55.845 -1.5843e-07 
586 1 0.142857 0 0 55.845 -1.70683e-07 
587 1 0.178571 0.0357143 0 55.845 3.36873e-08 
588 1 0.214286 0.0714286 0 55.845 -1.87007e-07 
589 1 0.25 0.107143 0 55.845 -7.37754e-08 
594 1 0.214286 0 0 55.845 5.82777e-08 
595 1 0.25 0.0357143 0 55.845 -5.33213e-08 
313 1 0.28571 0.107125 0.210623 55.845 -4.23226e-07 
323 1 0.249991 -4.07903e-05 0.210708 55.845 -4.69354e-07 
325 1 0.285731 0.0356808 0.210699 55.845 -1.88625e-07 
327 1 0.321431 0.0713804 0.210687 55.845 5.99316e-08 
329 1 0.357127 0.107219 0.210742 55.845 -1.91619e-07 
337 1 0.321406 -6.05238e-05 0.210669 55.845 2.84522e-07 
339 1 0.357115 0.0357245 0.210641 55.845 2.71342e-07 
415 1 0.285711 0.107074 0.126831 55.845 -4.67582e-07 
425 1 0.249964 -5.40566e-05 0.126819 55.845 -2.27618e-07 
427 1 0.285641 0.035669 0.126922 55.845 -2.64777e-07 
428 1 0.285789 0.0714186 0.16915 55.845 2.34932e-07 
429 1 0.321427 0.0714276 0.126817 55.845 -4.43042e-07 
430 1 0.321483 0.107162 0.169 55.845 2.66148e-07 
431 1 0.357113 0.107195 0.126848 55.845 -4.72011e-07 
439 1 0.321405 -3.8685e-06 0.126878 55.845 2.4131e-07 
440 1 0.321413 0.0357058 0.168971 55.845 3.54561e-07 
441 1 0.357121 0.0356799 0.126925 55.845 1.29526e-08 
442 1 0.357178 0.0715026 0.169118 55.845 2.28723e-07 
517 1 0.285714 0.107143 0.0416667 55.845 2.54692e-07 
527 1 0.25 0 0.0416667 55.845 8.55725e-07 
529 1 0.285714 0.0357143 0.0416667 55.845 4.03551e-07 
530 1 0.285715 0.0714025 0.0844314 55.845 -8.46813e-08 
531 1 0.321429 0.0714286 0.0416667 55.845 4.54615e-08 
532 1 0.321406 0.107107 0.0843703 55.845 -1.03152e-07 
533 1 0.357143 0.107143 0.0416667 55.845 2.37819e-07 
603 1 0.357143 0.0714286 0 55.845 -4.09788e-07 
541 1 0.321429 0 0.0416667 55.845 6.12843e-07 
542 1 0.321364 0.0357043 0.0843071 55.845 -1.26542e-07 
543 1 0.357143 0.0357143 0.0416667 55.845 2.64503e-07 
544 1 0.357176 0.0713809 0.0844288 55.845 2.55519e-08 
602 1 0.321429 0.0357143 0 55.845 -4.54687e-07 
596 1 0.285714 0.0714286 0 55.845 -3.56362e-07 
597 1 0.321429 0.107143 0 55.845 -2.38554e-07 
612 1 0.464286 0.0357143 0 55.845 -2.41692e-07 
611 1 0.428571 0 0 55.845 -3.0309e-07 
610 1 0.464286 0.107143 0 55.845 -3.28828e-08 
609 1 0.428571 0.0714286 0 55.845 -2.45698e-07 
608 1 0.392857 0.0357143 0 55.845 -3.63765e-07 
341 1 0.392957 0.0714219 0.210622 55.845 -2.97877e-07 
343 1 0.428577 0.107122 0.210695 55.845 -3.93893e-07 
348 1 0.392903 0.000109802 0.210793 55.845 2.76054e-07 
350 1 0.428633 0.0357773 0.210675 55.845 -3.51223e-07 
352 1 0.46429 0.07153 0.210755 55.845 -6.01028e-07 
355 1 0.464283 2.17278e-05 0.21073 55.845 -1.96379e-07 
443 1 0.392872 0.0714375 0.126812 55.845 -2.1563e-07 
444 1 0.392853 0.107135 0.169073 55.845 3.15393e-07 
445 1 0.428523 0.10717 0.1269 55.845 -2.41577e-07 
604 1 0.392857 0.107143 0 55.845 -2.45657e-07 
450 1 0.392948 2.66855e-05 0.126788 55.845 6.49811e-08 
451 1 0.392859 0.0358247 0.169059 55.845 3.20967e-07 
452 1 0.428582 0.0357115 0.12682 55.845 6.98394e-09 
453 1 0.428652 0.0713825 0.168991 55.845 3.62983e-07 
454 1 0.46424 0.071397 0.126855 55.845 -1.15462e-07 
455 1 0.464281 0.107142 0.16896 55.845 2.23444e-07 
456 1 0.428629 4.73676e-05 0.168934 55.845 -1.66734e-08 
457 1 0.464321 -3.42782e-05 0.126736 55.845 4.58693e-08 
458 1 0.464352 0.0357007 0.169115 55.845 7.38268e-08 
545 1 0.392857 0.0714286 0.0416667 55.845 4.10308e-07 
546 1 0.392823 0.107137 0.0844646 55.845 -8.50681e-08 
547 1 0.428571 0.107143 0.0416667 55.845 8.5352e-07 
552 1 0.392857 0 0.0416667 55.845 4.69616e-07 
553 1 0.392883 0.0357152 0.0844672 55.845 -1.41699e-07 
554 1 0.428571 0.0357143 0.0416667 55.845 7.80194e-07 
555 1 0.428601 0.0714563 0.0844773 55.845 -1.72953e-07 
556 1 0.464286 0.0714286 0.0416667 55.845 8.92027e-07 
557 1 0.46429 0.107087 0.084527 55.845 -9.30869e-08 
558 1 0.428582 2.34589e-06 0.0844097 55.845 -4.94898e-07 
559 1 0.464286 0 0.0416667 55.845 8.13396e-07 
560 1 0.464309 0.0357472 0.0843148 55.845 -4.9124e-07 
255 1 0.000117351 0.17851 0.210727 55.845 1.85381e-07 
257 1 0.035756 0.214277 0.210847 55.845 2.31939e-07 
261 1 0.0356516 0.142855 0.210741 55.845 1.34897e-07 
263 1 0.0714428 0.178491 0.210741 55.845 3.63221e-07 
265 1 0.107149 0.214174 0.210714 55.845 5.64798e-07 
273 1 0.10717 0.142833 0.210768 55.845 2.54932e-07 
357 1 9.01032e-05 0.17854 0.126941 55.845 6.75455e-08 
358 1 8.21132e-05 0.214205 0.169149 55.845 -1.71546e-07 
359 1 0.0357464 0.214239 0.126799 55.845 4.00492e-08 
360 1 0.0357375 0.249884 0.169103 55.845 -2.21331e-08 
362 1 6.23825e-05 0.142803 0.169077 55.845 -3.67356e-07 
363 1 0.0357675 0.142776 0.126837 55.845 7.98814e-08 
364 1 0.0358283 0.178539 0.169033 55.845 -3.49886e-07 
365 1 0.0714014 0.178532 0.126861 55.845 1.30822e-08 
366 1 0.0714637 0.214183 0.16895 55.845 -4.75874e-07 
367 1 0.107199 0.214242 0.126951 55.845 -1.27927e-08 
368 1 0.107158 0.249923 0.169184 55.845 -3.2187e-07 
374 1 0.0713769 0.142822 0.169178 55.845 -2.71144e-07 
375 1 0.10717 0.142857 0.126902 55.845 -2.33692e-08 
376 1 0.10716 0.178456 0.169106 55.845 -1.50607e-07 
459 1 0 0.178571 0.0416667 55.845 7.82035e-07 
460 1 -1.73668e-07 0.214291 0.0843849 55.845 -9.93932e-08 
461 1 0.0357143 0.214286 0.0416667 55.845 6.5693e-07 
462 1 0.0357083 0.24999 0.0845451 55.845 -2.47639e-07 
464 1 9.89e-06 0.142905 0.084497 55.845 -4.684e-07 
465 1 0.0357143 0.142857 0.0416667 55.845 6.40715e-07 
466 1 0.035653 0.178565 0.0843897 55.845 -5.56456e-07 
467 1 0.0714286 0.178571 0.0416667 55.845 4.24331e-07 
468 1 0.0714121 0.214216 0.0844613 55.845 -1.54722e-07 
469 1 0.107143 0.214286 0.0416667 55.845 3.91582e-07 
470 1 0.107172 0.249998 0.0844584 55.845 -3.56979e-07 
476 1 0.0714175 0.142932 0.0844828 55.845 -3.5676e-07 
477 1 0.107143 0.142857 0.0416667 55.845 3.27247e-07 
478 1 0.107079 0.178563 0.0844343 55.845 -4.30526e-07 
561 1 0 0.214286 0 55.845 -1.58323e-07 
562 1 0.0357143 0.25 0 55.845 -1.49149e-08 
563 1 0 0.142857 0 55.845 -3.6393e-07 
564 1 0.0357143 0.178571 0 55.845 -1.26631e-07 
565 1 0.0714286 0.214286 0 55.845 -1.51649e-07 
566 1 0.107143 0.25 0 55.845 3.96966e-08 
569 1 0.0714286 0.142857 0 55.845 -4.74005e-07 
570 1 0.107143 0.178571 0 55.845 -1.94298e-07 
275 1 0.142855 0.178524 0.210704 55.845 2.73477e-07 
277 1 0.17858 0.214327 0.210778 55.845 2.87979e-08 
287 1 0.17855 0.142794 0.210662 55.845 -2.17559e-07 
289 1 0.2143 0.17861 0.210621 55.845 -4.00018e-07 
291 1 0.249966 0.214309 0.210768 55.845 -4.65647e-07 
301 1 0.250035 0.142848 0.210611 55.845 -4.95286e-07 
377 1 0.142857 0.17853 0.126842 55.845 -3.82877e-08 
378 1 0.142893 0.214289 0.169173 55.845 -4.10475e-07 
379 1 0.178526 0.214264 0.126889 55.845 6.35558e-08 
388 1 0.14287 0.142772 0.169018 55.845 -1.0249e-07 
389 1 0.17858 0.142881 0.126934 55.845 -1.99635e-07 
390 1 0.178552 0.17861 0.16914 55.845 1.49984e-07 
391 1 0.214297 0.178572 0.126972 55.845 -2.31079e-07 
392 1 0.214288 0.214411 0.169083 55.845 -3.14455e-07 
393 1 0.250011 0.21421 0.126957 55.845 -1.74444e-07 
402 1 0.214274 0.142866 0.168992 55.845 1.94048e-07 
403 1 0.250045 0.142802 0.12676 55.845 -4.18512e-07 
404 1 0.250048 0.178562 0.169042 55.845 1.19983e-07 
479 1 0.142857 0.178571 0.0416667 55.845 3.91448e-07 
480 1 0.142834 0.214225 0.0843662 55.845 -7.37141e-08 
481 1 0.178571 0.214286 0.0416667 55.845 6.72687e-07 
490 1 0.142858 0.142861 0.0842636 55.845 -9.80798e-08 
491 1 0.178571 0.142857 0.0416667 55.845 5.41687e-07 
492 1 0.178618 0.178579 0.0844415 55.845 -3.7343e-07 
493 1 0.214286 0.178571 0.0416667 55.845 7.13186e-07 
494 1 0.214273 0.21435 0.0844799 55.845 -2.45295e-07 
495 1 0.25 0.214286 0.0416667 55.845 5.88946e-07 
504 1 0.214301 0.142825 0.0844863 55.845 7.62307e-09 
505 1 0.25 0.142857 0.0416667 55.845 7.17796e-07 
506 1 0.250011 0.178571 0.0846148 55.845 -2.37065e-07 
571 1 0.142857 0.214286 0 55.845 -1.83828e-07 
576 1 0.142857 0.142857 0 55.845 -5.249e-07 
577 1 0.178571 0.178571 0 55.845 -1.80865e-07 
578 1 0.214286 0.214286 0 55.845 -2.56893e-07 
583 1 0.214286 0.142857 0 55.845 -3.13043e-07 
584 1 0.25 0.178571 0 55.845 -3.8444e-08 
303 1 0.285737 0.178562 0.210688 55.845 -3.80077e-07 
305 1 0.321454 0.214277 0.210807 55.845 3.98495e-08 
315 1 0.321405 0.142761 0.210912 55.845 -1.50968e-07 
317 1 0.357084 0.178547 0.210798 55.845 -1.01419e-07 
405 1 0.285732 0.178601 0.126902 55.845 -3.93643e-07 
406 1 0.285714 0.214302 0.168987 55.845 -2.0957e-07 
407 1 0.321455 0.214332 0.126828 55.845 -2.14746e-07 
416 1 0.285771 0.14281 0.169071 55.845 1.98954e-07 
417 1 0.321423 0.142843 0.126772 55.845 -5.43955e-07 
418 1 0.321382 0.178553 0.169156 55.845 1.40122e-07 
419 1 0.357067 0.178607 0.126933 55.845 -3.547e-07 
420 1 0.35713 0.214228 0.169124 55.845 1.44498e-07 
432 1 0.357127 0.142881 0.168942 55.845 1.66564e-07 
507 1 0.285714 0.178571 0.0416667 55.845 5.41347e-07 
508 1 0.285679 0.214311 0.08444 55.845 -1.11048e-07 
509 1 0.321429 0.214286 0.0416667 55.845 4.98136e-07 
518 1 0.285745 0.14292 0.0844333 55.845 6.67031e-08 
519 1 0.321429 0.142857 0.0416667 55.845 4.74886e-07 
520 1 0.321329 0.178625 0.08437 55.845 7.5787e-08 
521 1 0.357143 0.178571 0.0416667 55.845 5.66119e-07 
522 1 0.357192 0.214373 0.0843582 55.845 6.4173e-08 
534 1 0.357127 0.142819 0.0845 55.845 8.4156e-08 
585 1 0.285714 0.214286 0 55.845 -1.10949e-07 
590 1 0.285714 0.142857 0 55.845 -1.27095e-07 
591 1 0.321429 0.178571 0 55.845 9.39611e-08 
592 1 0.357143 0.214286 0 55.845 -7.0992e-08 
598 1 0.357143 0.142857 0 55.845 -1.00689e-07 
319 1 0.392821 0.214289 0.210942 55.845 -2.34497e-07 
321 1 0.428608 0.250035 0.210649 55.845 -4.72872e-07 
331 1 0.392873 0.142803 0.2108 55.845 -3.45303e-07 
333 1 0.428629 0.178559 0.210768 55.845 -5.24538e-07 
335 1 0.464293 0.214272 0.210818 55.845 -7.79502e-07 
345 1 0.464355 0.142847 0.210725 55.845 -4.46888e-07 
606 1 0.464286 0.178571 0 55.845 -2.92798e-07 
421 1 0.392797 0.214225 0.127 55.845 -2.88631e-07 
422 1 0.392852 0.24995 0.168908 55.845 3.711e-07 
423 1 0.428573 0.249933 0.126944 55.845 -5.32932e-07 
433 1 0.392777 0.142837 0.126969 55.845 -3.16141e-07 
434 1 0.392818 0.178483 0.169105 55.845 2.03943e-07 
435 1 0.428591 0.178593 0.126914 55.845 -3.94477e-07 
436 1 0.428558 0.214282 0.169135 55.845 3.60237e-07 
437 1 0.464281 0.214324 0.126962 55.845 -5.06208e-07 
605 1 0.428571 0.142857 0 55.845 -1.8983e-07 
446 1 0.428531 0.142908 0.169118 55.845 3.22342e-07 
447 1 0.464312 0.142842 0.126909 55.845 -2.37503e-07 
448 1 0.464353 0.178541 0.169034 55.845 2.82553e-07 
523 1 0.392857 0.214286 0.0416667 55.845 4.1702e-07 
524 1 0.392837 0.2501 0.0844274 55.845 -9.73729e-08 
525 1 0.428571 0.25 0.0416667 55.845 3.42369e-07 
535 1 0.392857 0.142857 0.0416667 55.845 6.05324e-07 
536 1 0.392792 0.178518 0.0843652 55.845 -3.05982e-08 
537 1 0.428571 0.178571 0.0416667 55.845 5.85681e-07 
538 1 0.428496 0.214285 0.0844633 55.845 -7.20884e-08 
539 1 0.464286 0.214286 0.0416667 55.845 3.64416e-07 
548 1 0.428537 0.142901 0.0844731 55.845 -1.17503e-07 
549 1 0.464286 0.142857 0.0416667 55.845 7.20874e-07 
550 1 0.464235 0.178589 0.0843944 55.845 -2.11079e-07 
593 1 0.392857 0.25 0 55.845 -2.34471e-07 
599 1 0.392857 0.178571 0 55.845 -5.65158e-08 
600 1 0.428571 0.214286 0 55.845 -3.22002e-07 
3 1 -2.71776e-05 0.107133 0.463303 55.845 -2.5044e-07 
7 1 4.16187e-05 0.0356977 0.463387 55.845 -3.70701e-07 
8 1 0.0357525 0.0714089 0.463409 55.845 -2.45675e-07 
9 1 0.0713799 0.107149 0.463394 55.845 -2.15156e-07 
13 1 0.0357462 -0.000127103 0.463461 55.845 -5.98591e-07 
14 1 0.0713719 0.0357288 0.463407 55.845 -3.62467e-07 
15 1 0.107088 0.0713839 0.463444 55.845 -1.3375e-07 
20 1 0.107139 -2.89542e-06 0.463548 55.845 -5.22863e-07 
55 1 -2.96436e-05 0.1071 0.378927 55.845 -2.22012e-07 
63 1 1.5534e-05 0.035711 0.37903 55.845 -3.49485e-07 
64 1 9.12751e-05 0.071409 0.421175 55.845 4.52424e-07 
65 1 0.0358291 0.0714347 0.379004 55.845 -8.59264e-08 
66 1 0.0357047 0.107129 0.42106 55.845 3.76845e-07 
67 1 0.0713791 0.107211 0.379006 55.845 -1.46136e-07 
74 1 2.45921e-05 2.17557e-05 0.420999 55.845 8.13806e-07 
75 1 0.0357109 5.24222e-05 0.378918 55.845 -3.78096e-07 
76 1 0.0356917 0.0357418 0.421241 55.845 5.91166e-07 
77 1 0.0714919 0.0356517 0.379023 55.845 -3.02052e-07 
78 1 0.0714939 0.0714283 0.4211 55.845 1.79881e-07 
79 1 0.107241 0.0714363 0.378872 55.845 -4.19474e-07 
80 1 0.107135 0.107077 0.420851 55.845 4.07532e-07 
88 1 0.0714464 -2.81988e-05 0.421229 55.845 4.53626e-07 
89 1 0.107198 1.84003e-05 0.37913 55.845 -3.19623e-07 
90 1 0.107123 0.0357515 0.421179 55.845 5.55353e-07 
157 1 9.21528e-05 0.107024 0.295425 55.845 2.72303e-07 
165 1 -7.89715e-06 0.035701 0.295563 55.845 -7.76339e-08 
166 1 8.3921e-05 0.0713463 0.337687 55.845 4.67619e-07 
167 1 0.0357373 0.0713455 0.29547 55.845 -8.58575e-09 
168 1 0.0357104 0.107071 0.337603 55.845 8.0017e-08 
169 1 0.0714431 0.107047 0.295554 55.845 -1.68111e-08 
176 1 -3.60298e-05 5.22398e-05 0.33756 55.845 8.61435e-07 
177 1 0.0357758 0.000114197 0.295608 55.845 -2.41714e-07 
178 1 0.0357297 0.0356676 0.337612 55.845 5.77685e-07 
179 1 0.0714723 0.0357194 0.295642 55.845 -3.25067e-07 
180 1 0.0714829 0.0714556 0.337636 55.845 3.61457e-07 
181 1 0.107153 0.071356 0.295592 55.845 -2.36315e-07 
182 1 0.107168 0.10701 0.337576 55.845 1.26684e-07 
190 1 0.0714702 1.55975e-05 0.337653 55.845 4.18245e-07 
191 1 0.107194 -4.42328e-06 0.2956 55.845 -1.63336e-07 
192 1 0.1072 0.0357315 0.33759 55.845 4.14793e-07 
268 1 4.28859e-05 0.0713381 0.252896 55.845 -1.29066e-08 
270 1 0.0357466 0.107186 0.252928 55.845 2.72529e-08 
278 1 -3.61083e-05 -1.97678e-05 0.252943 55.845 3.4458e-07 
280 1 0.0356676 0.035682 0.253018 55.845 2.96516e-07 
282 1 0.0714641 0.0712988 0.252932 55.845 4.2377e-07 
284 1 0.107041 0.107125 0.252981 55.845 1.33161e-07 
292 1 0.0715 -4.91509e-05 0.253097 55.845 3.84686e-07 
294 1 0.107191 0.0356364 0.252939 55.845 4.16368e-07 
16 1 0.142752 0.107119 0.463408 55.845 -3.25118e-07 
21 1 0.142907 0.0357162 0.463542 55.845 -1.61748e-07 
22 1 0.178559 0.0714572 0.463423 55.845 -4.78142e-08 
23 1 0.21432 0.107166 0.463416 55.845 -3.30198e-07 
27 1 0.178538 1.63761e-05 0.463348 55.845 -2.31059e-07 
28 1 0.214323 0.0357454 0.463305 55.845 -2.33852e-07 
29 1 0.249939 0.0714723 0.463291 55.845 -2.88572e-07 
81 1 0.142908 0.107083 0.378936 55.845 -3.81558e-07 
91 1 0.142828 0.0357177 0.378903 55.845 -4.02117e-07 
92 1 0.142802 0.0714045 0.421164 55.845 1.30301e-07 
93 1 0.178549 0.0713917 0.379149 55.845 -4.05119e-07 
94 1 0.178553 0.107092 0.421227 55.845 4.78844e-07 
95 1 0.214294 0.107113 0.378977 55.845 -1.53959e-07 
102 1 0.142889 4.03865e-05 0.42118 55.845 5.67634e-07 
103 1 0.178649 7.27761e-06 0.378963 55.845 -1.48342e-07 
104 1 0.178598 0.0357722 0.421116 55.845 5.38886e-07 
105 1 0.214279 0.0357447 0.378877 55.845 -2.39633e-07 
106 1 0.214296 0.0714201 0.421117 55.845 9.08659e-08 
107 1 0.249943 0.0713906 0.378844 55.845 -2.56496e-07 
108 1 0.250041 0.107125 0.421018 55.845 6.06307e-07 
118 1 0.214307 -1.33652e-05 0.421 55.845 3.6722e-07 
120 1 0.250001 0.0357869 0.421135 55.845 4.42897e-07 
183 1 0.142882 0.107093 0.295476 55.845 -3.3303e-07 
193 1 0.142949 0.0356543 0.295507 55.845 -7.12823e-08 
194 1 0.142959 0.0713745 0.337556 55.845 4.44589e-07 
195 1 0.178552 0.0714154 0.29548 55.845 -1.36513e-07 
196 1 0.178593 0.107093 0.337581 55.845 1.9305e-07 
197 1 0.21431 0.107082 0.295483 55.845 -1.05457e-07 
204 1 0.142968 9.88358e-06 0.337559 55.845 5.48345e-07 
205 1 0.178655 -7.45961e-05 0.295463 55.845 2.07313e-08 
206 1 0.178553 0.0357587 0.337554 55.845 5.27594e-07 
207 1 0.214293 0.0357198 0.295554 55.845 -1.39022e-07 
208 1 0.214249 0.0713982 0.337577 55.845 5.21179e-07 
209 1 0.249909 0.0713957 0.295558 55.845 -7.82103e-08 
210 1 0.25001 0.107195 0.337655 55.845 4.40459e-07 
220 1 0.214362 3.99195e-05 0.337649 55.845 4.61299e-07 
222 1 0.25 0.0356632 0.337613 55.845 2.91764e-07 
296 1 0.142748 0.0714099 0.252949 55.845 1.98696e-07 
298 1 0.178636 0.107031 0.252898 55.845 1.40374e-08 
306 1 0.142872 3.65522e-06 0.253076 55.845 1.33294e-08 
308 1 0.178624 0.0357516 0.252977 55.845 7.24617e-08 
310 1 0.214272 0.0713639 0.252971 55.845 3.1499e-07 
312 1 0.250004 0.107104 0.253008 55.845 5.37668e-07 
322 1 0.214275 3.31589e-05 0.252961 55.845 -1.26794e-08 
324 1 0.250033 0.0357139 0.252973 55.845 1.25378e-07 
30 1 0.285655 0.107156 0.463383 55.845 -3.94706e-07 
35 1 0.24999 5.41338e-05 0.463376 55.845 -3.14321e-07 
36 1 0.285716 0.035694 0.463478 55.845 -2.76768e-07 
37 1 0.321425 0.0714508 0.463412 55.845 -2.32088e-07 
38 1 0.357144 0.107101 0.463319 55.845 -1.3235e-07 
42 1 0.321411 -6.40603e-05 0.463248 55.845 1.93385e-08 
43 1 0.357182 0.0357216 0.46344 55.845 2.27167e-07 
109 1 0.285673 0.107173 0.378931 55.845 -2.56044e-07 
119 1 0.250008 -3.7273e-05 0.379073 55.845 -1.65216e-07 
121 1 0.28575 0.0357491 0.378922 55.845 -2.0133e-07 
122 1 0.285723 0.0714329 0.421007 55.845 1.15942e-07 
123 1 0.321478 0.0714404 0.378934 55.845 -2.10157e-07 
124 1 0.321383 0.107097 0.42119 55.845 3.81049e-07 
125 1 0.357114 0.107064 0.37891 55.845 -5.79616e-07 
133 1 0.321425 -3.42696e-05 0.378842 55.845 8.94898e-09 
134 1 0.321481 0.0356893 0.421069 55.845 3.7282e-07 
135 1 0.357174 0.0357685 0.378987 55.845 -8.6417e-08 
136 1 0.357193 0.0714394 0.421045 55.845 6.58615e-08 
211 1 0.28569 0.107159 0.29549 55.845 1.58735e-08 
221 1 0.250079 1.0609e-05 0.29552 55.845 -1.25977e-07 
223 1 0.285747 0.0357066 0.295476 55.845 -9.60711e-08 
224 1 0.285683 0.0714317 0.337523 55.845 3.8017e-07 
225 1 0.321406 0.0713277 0.29537 55.845 -1.77881e-07 
226 1 0.321457 0.107096 0.337617 55.845 3.81455e-07 
227 1 0.35715 0.107125 0.295441 55.845 -3.5576e-07 
235 1 0.321473 -1.75105e-07 0.29557 55.845 2.37533e-07 
236 1 0.321518 0.0357309 0.337508 55.845 9.19835e-08 
237 1 0.357201 0.0356945 0.295421 55.845 2.52882e-08 
238 1 0.357196 0.0713948 0.337322 55.845 9.55504e-09 
326 1 0.285655 0.0713823 0.253022 55.845 2.69606e-07 
328 1 0.32145 0.107063 0.252918 55.845 1.86899e-07 
338 1 0.321461 0.0356163 0.25285 55.845 -3.52621e-08 
340 1 0.357195 0.0714927 0.25281 55.845 -1.74357e-08 
44 1 0.392861 0.0713797 0.463419 55.845 -6.59299e-08 
45 1 0.428566 0.10715 0.463326 55.845 -2.02995e-07 
47 1 0.392894 1.23672e-06 0.463401 55.845 2.55128e-07 
48 1 0.42865 0.0356939 0.463393 55.845 1.06677e-07 
49 1 0.464339 0.0713482 0.463365 55.845 -4.75082e-08 
50 1 0.464346 -2.24559e-05 0.463471 55.845 1.35831e-07 
137 1 0.392797 0.0713854 0.378918 55.845 7.6536e-08 
138 1 0.392873 0.107091 0.421148 55.845 2.51388e-07 
139 1 0.428566 0.10709 0.378891 55.845 1.30506e-07 
144 1 0.392872 1.22023e-05 0.378928 55.845 3.87897e-07 
145 1 0.392897 0.035685 0.421166 55.845 -1.88737e-09 
146 1 0.428579 0.0357346 0.378945 55.845 5.92495e-07 
147 1 0.428649 0.0714377 0.421144 55.845 1.55483e-07 
148 1 0.464338 0.0714305 0.378896 55.845 5.39289e-07 
149 1 0.464257 0.107181 0.421044 55.845 2.74512e-07 
150 1 0.428596 -1.80174e-05 0.421169 55.845 -1.81141e-07 
151 1 0.464251 -4.66989e-06 0.378845 55.845 1.08975e-06 
152 1 0.46431 0.0357715 0.421065 55.845 -3.63119e-07 
239 1 0.392923 0.0713574 0.295436 55.845 -1.29097e-07 
240 1 0.392823 0.107175 0.337517 55.845 3.25092e-07 
241 1 0.428545 0.107104 0.295527 55.845 -2.00907e-07 
246 1 0.39288 5.43101e-05 0.295442 55.845 4.32739e-07 
247 1 0.392897 0.0356923 0.337568 55.845 -2.81567e-07 
248 1 0.428622 0.0356472 0.295587 55.845 1.57511e-07 
249 1 0.42855 0.0714757 0.337582 55.845 -1.899e-07 
250 1 0.464373 0.0714416 0.295502 55.845 1.76823e-07 
251 1 0.464275 0.107101 0.337513 55.845 5.88537e-07 
252 1 0.428601 -1.88579e-05 0.337438 55.845 -7.3037e-07 
253 1 0.464294 -0.000111765 0.295516 55.845 6.9169e-07 
254 1 0.464244 0.0357209 0.337526 55.845 -4.60657e-07 
342 1 0.392824 0.107166 0.252861 55.845 1.0446e-07 
349 1 0.392936 0.0357229 0.252834 55.845 -3.27334e-08 
351 1 0.428595 0.0714647 0.25294 55.845 2.76902e-07 
353 1 0.464274 0.107184 0.252864 55.845 4.4681e-07 
354 1 0.428601 -2.0125e-05 0.252858 55.845 -1.60264e-07 
356 1 0.464248 0.0357297 0.253044 55.845 2.31444e-07 
1 1 -2.34844e-05 0.178605 0.463244 55.845 -4.62208e-08 
2 1 0.0357899 0.214289 0.463248 55.845 -1.27971e-08 
4 1 0.0356674 0.142793 0.463302 55.845 -3.14162e-07 
5 1 0.0714399 0.178627 0.463261 55.845 -3.83785e-08 
6 1 0.107174 0.214191 0.463261 55.845 1.51771e-07 
10 1 0.107108 0.142828 0.463332 55.845 -2.01007e-07 
51 1 3.67375e-05 0.178533 0.378877 55.845 7.00279e-08 
52 1 -2.13367e-05 0.214252 0.420959 55.845 3.07196e-07 
53 1 0.0357028 0.214255 0.378848 55.845 3.54098e-07 
54 1 0.0356868 0.250031 0.421017 55.845 1.35277e-07 
56 1 -6.4253e-05 0.142826 0.421084 55.845 1.96167e-07 
57 1 0.03568 0.142868 0.378847 55.845 2.01885e-07 
58 1 0.0357267 0.178581 0.42118 55.845 9.51869e-08 
59 1 0.0714218 0.178545 0.378834 55.845 2.83932e-07 
60 1 0.0714583 0.214294 0.420939 55.845 -2.90368e-07 
61 1 0.107161 0.214269 0.378927 55.845 5.03623e-07 
62 1 0.107212 0.250013 0.42105 55.845 -1.24553e-07 
68 1 0.0713835 0.142883 0.421101 55.845 4.32283e-08 
69 1 0.107075 0.142764 0.378877 55.845 -6.99679e-09 
70 1 0.107066 0.178512 0.420963 55.845 -9.32132e-09 
153 1 -1.38534e-05 0.178555 0.295421 55.845 4.37392e-07 
154 1 -3.89308e-05 0.214364 0.33745 55.845 5.23609e-08 
155 1 0.0357531 0.214251 0.295462 55.845 4.37926e-07 
156 1 0.0356914 0.249899 0.337546 55.845 -9.18889e-08 
158 1 -5.12305e-05 0.142897 0.337528 55.845 -2.82342e-08 
159 1 0.0356822 0.142751 0.295482 55.845 2.63438e-07 
160 1 0.0356915 0.17864 0.337472 55.845 -2.82392e-07 
161 1 0.0714107 0.178573 0.295514 55.845 6.77734e-07 
162 1 0.071444 0.214325 0.337546 55.845 -3.99436e-07 
163 1 0.107174 0.214209 0.295559 55.845 8.62025e-07 
164 1 0.107143 0.249977 0.337584 55.845 -4.77165e-07 
170 1 0.0714286 0.142865 0.337538 55.845 -1.12203e-07 
171 1 0.107161 0.142883 0.295593 55.845 9.38542e-08 
172 1 0.107208 0.178504 0.337563 55.845 -3.25278e-07 
256 1 9.51161e-05 0.214249 0.253043 55.845 -3.8694e-07 
258 1 0.0357081 0.249938 0.252981 55.845 -2.62594e-07 
260 1 -4.38239e-05 0.142811 0.252999 55.845 -3.53755e-07 
262 1 0.0356753 0.178484 0.252995 55.845 -4.14264e-07 
264 1 0.0714326 0.21418 0.253013 55.845 -4.73177e-07 
266 1 0.107121 0.249895 0.252987 55.845 -6.28825e-07 
272 1 0.0713517 0.142774 0.253088 55.845 -2.8651e-08 
274 1 0.107127 0.178524 0.253021 55.845 -4.63131e-07 
11 1 0.142907 0.178434 0.463291 55.845 1.1739e-07 
12 1 0.17858 0.214291 0.463393 55.845 3.57107e-07 
17 1 0.17863 0.142843 0.463346 55.845 -9.01965e-08 
18 1 0.214326 0.178608 0.463389 55.845 1.51407e-08 
19 1 0.250073 0.21427 0.463379 55.845 -1.89322e-08 
24 1 0.249975 0.142818 0.463266 55.845 -2.86267e-07 
71 1 0.142937 0.178504 0.378833 55.845 3.48711e-07 
72 1 0.142872 0.214217 0.421021 55.845 -2.27934e-07 
73 1 0.178601 0.214246 0.378864 55.845 5.79891e-07 
82 1 0.142825 0.142757 0.42109 55.845 -6.88011e-09 
83 1 0.178598 0.142756 0.37892 55.845 -1.82768e-07 
84 1 0.178614 0.178576 0.421056 55.845 2.90253e-07 
85 1 0.214324 0.17853 0.37895 55.845 2.88106e-07 
86 1 0.214316 0.214316 0.421072 55.845 -9.70487e-08 
87 1 0.250004 0.214284 0.378938 55.845 4.87545e-07 
96 1 0.214299 0.142947 0.420985 55.845 2.60782e-07 
97 1 0.249991 0.142872 0.378835 55.845 -1.51848e-07 
98 1 0.250018 0.178563 0.421046 55.845 2.53654e-07 
173 1 0.142898 0.178513 0.295429 55.845 3.70048e-07 
174 1 0.142935 0.214248 0.33761 55.845 -3.03708e-07 
175 1 0.178593 0.214218 0.295475 55.845 5.95844e-07 
184 1 0.142874 0.142765 0.337561 55.845 -5.94377e-09 
185 1 0.178508 0.142754 0.295358 55.845 -6.12717e-08 
186 1 0.178559 0.178475 0.337453 55.845 -3.28209e-07 
187 1 0.21427 0.178554 0.295427 55.845 -8.14585e-08 
188 1 0.214284 0.214216 0.337603 55.845 -2.81292e-07 
189 1 0.24994 0.214295 0.295419 55.845 4.86588e-08 
198 1 0.2142 0.142873 0.337593 55.845 2.22145e-07 
199 1 0.249894 0.142798 0.295467 55.845 -1.40134e-07 
200 1 0.249922 0.178636 0.337457 55.845 -1.19248e-07 
276 1 0.142868 0.214241 0.252899 55.845 -4.73544e-07 
286 1 0.14284 0.142765 0.253043 55.845 -5.38366e-08 
288 1 0.178551 0.178489 0.252878 55.845 -4.58848e-07 
290 1 0.21429 0.214259 0.252957 55.845 -3.34237e-07 
300 1 0.214254 0.142887 0.252909 55.845 1.19418e-07 
302 1 0.249904 0.178547 0.252912 55.845 -7.68121e-08 
25 1 0.285726 0.178613 0.463284 55.845 -1.40107e-07 
26 1 0.321379 0.214322 0.463337 55.845 -1.13623e-07 
31 1 0.321338 0.142831 0.463355 55.845 -2.31167e-07 
32 1 0.357117 0.178542 0.463284 55.845 -1.36196e-07 
99 1 0.285653 0.178622 0.378788 55.845 6.76579e-08 
100 1 0.285724 0.214276 0.421157 55.845 -1.81947e-07 
101 1 0.321361 0.214295 0.378941 55.845 1.25194e-07 
110 1 0.285716 0.142913 0.420888 55.845 3.48153e-07 
111 1 0.321436 0.142885 0.37895 55.845 -4.48191e-07 
112 1 0.32147 0.178597 0.421079 55.845 2.93227e-07 
113 1 0.357045 0.178551 0.37883 55.845 -3.75953e-07 
114 1 0.357166 0.21423 0.421097 55.845 2.14364e-07 
126 1 0.357083 0.14277 0.421089 55.845 4.54574e-07 
201 1 0.285703 0.178523 0.295466 55.845 2.47235e-08 
202 1 0.285707 0.214355 0.337578 55.845 -7.98393e-08 
203 1 0.321426 0.214272 0.295465 55.845 1.78711e-07 
212 1 0.285674 0.142936 0.337539 55.845 4.55548e-07 
213 1 0.321426 0.142814 0.295639 55.845 -2.10711e-07 
214 1 0.321373 0.178565 0.337515 55.845 1.99258e-07 
215 1 0.357134 0.178524 0.295562 55.845 -3.8789e-08 