ITEM: TIMESTEP
2900
ITEM: NUMBER OF ATOMS
5880
ITEM: BOX BOUNDS pp pp ff
-27.9373 27.9373
-27.9373 27.9373
0 34.092
ITEM: ATOMS id type xs ys zs mass q 
259 1 2.70009e-05 0.107179 0.209578 55.845 -2.04938e-08 
267 1 -4.6666e-05 0.0357601 0.20964 55.845 -3.47518e-08 
269 1 0.0357028 0.0714423 0.209653 55.845 -3.78172e-08 
271 1 0.0714158 0.10714 0.20967 55.845 7.6762e-08 
279 1 0.0357159 7.62263e-05 0.209723 55.845 -9.96419e-08 
281 1 0.0714091 0.0357289 0.209732 55.845 -1.53577e-07 
283 1 0.107161 0.0714285 0.209718 55.845 -3.92294e-08 
293 1 0.107121 3.57876e-05 0.209739 55.845 6.86394e-08 
361 1 -2.31337e-05 0.107178 0.125201 55.845 3.32631e-07 
369 1 5.15178e-05 0.0356627 0.125263 55.845 2.02259e-08 
370 1 -7.66621e-05 0.0714835 0.166843 55.845 -1.91027e-08 
371 1 0.0357469 0.0713623 0.125283 55.845 1.60218e-07 
372 1 0.0357224 0.107164 0.166947 55.845 -3.80618e-08 
373 1 0.0714917 0.107167 0.12531 55.845 2.44753e-07 
380 1 -5.48142e-05 -2.42494e-05 0.167043 55.845 -1.45462e-07 
381 1 0.0356585 -4.20197e-05 0.125242 55.845 -1.10108e-07 
382 1 0.0356933 0.0357108 0.167013 55.845 -1.40268e-07 
383 1 0.0714298 0.0357073 0.125348 55.845 2.41692e-08 
384 1 0.0714451 0.0714637 0.167041 55.845 7.40983e-08 
385 1 0.107194 0.0714024 0.125359 55.845 3.2791e-07 
386 1 0.107192 0.107116 0.167112 55.845 4.42547e-08 
394 1 0.0714226 9.37321e-06 0.167076 55.845 -2.21128e-07 
395 1 0.107166 -1.47371e-05 0.125284 55.845 6.85874e-08 
396 1 0.107175 0.0356957 0.167103 55.845 -1.2699e-07 
463 1 0 0.107143 0.0416667 55.845 -6.13746e-08 
471 1 0 0.0357143 0.0416667 55.845 -2.1671e-07 
472 1 -4.57744e-06 0.0714382 0.0837762 55.845 3.53915e-10 
473 1 0.0357143 0.0714286 0.0416667 55.845 -1.72306e-07 
474 1 0.0357621 0.107144 0.0838352 55.845 2.90263e-08 
475 1 0.0714286 0.107143 0.0416667 55.845 -1.56259e-07 
482 1 -2.81547e-05 3.01115e-05 0.0837742 55.845 5.32559e-08 
483 1 0.0357143 0 0.0416667 55.845 -3.46534e-07 
484 1 0.0357138 0.0356854 0.0838433 55.845 -1.91536e-07 
485 1 0.0714286 0.0357143 0.0416667 55.845 -2.6544e-07 
486 1 0.0714881 0.0713978 0.0838525 55.845 -8.94603e-08 
487 1 0.107143 0.0714286 0.0416667 55.845 -1.91794e-07 
488 1 0.107217 0.107212 0.0838579 55.845 2.66327e-08 
496 1 0.0714111 -4.87049e-05 0.0838957 55.845 -1.79791e-07 
497 1 0.107143 0 0.0416667 55.845 -2.85075e-07 
498 1 0.107198 0.035724 0.0838618 55.845 -1.42258e-07 
567 1 0 0.0714286 0 55.845 2.17934e-08 
568 1 0.0357143 0.107143 0 55.845 -5.53012e-08 
572 1 0 0 0 55.845 -1.29089e-07 
573 1 0.0357143 0.0357143 0 55.845 -8.77455e-08 
574 1 0.0714286 0.0714286 0 55.845 -8.78012e-09 
575 1 0.107143 0.107143 0 55.845 -2.59967e-09 
579 1 0.0714286 0 0 55.845 -7.8128e-08 
580 1 0.107143 0.0357143 0 55.845 2.27945e-08 
285 1 0.142834 0.107143 0.209617 55.845 1.30248e-07 
295 1 0.142885 0.0357407 0.209635 55.845 -3.12259e-08 
297 1 0.178582 0.0714046 0.209652 55.845 -1.79968e-08 
299 1 0.214251 0.107112 0.20955 55.845 -4.52468e-08 
307 1 0.178532 -3.27676e-05 0.209622 55.845 -4.70781e-08 
309 1 0.214267 0.035709 0.209629 55.845 -8.36359e-09 
311 1 0.249997 0.0714019 0.20967 55.845 -1.35945e-07 
387 1 0.142944 0.107169 0.12525 55.845 1.59746e-07 
397 1 0.142941 0.0357007 0.125248 55.845 2.51332e-07 
398 1 0.142905 0.0714546 0.166997 55.845 7.89957e-08 
399 1 0.178575 0.0714224 0.125194 55.845 2.62539e-07 
400 1 0.178593 0.107074 0.167081 55.845 2.15809e-09 
401 1 0.214275 0.10717 0.125368 55.845 1.88998e-07 
408 1 0.142795 6.35719e-05 0.167043 55.845 -1.117e-07 
409 1 0.178603 -6.22224e-05 0.125199 55.845 1.4721e-07 
410 1 0.178542 0.035673 0.167006 55.845 -4.12138e-08 
411 1 0.214276 0.035664 0.125247 55.845 1.33457e-07 
412 1 0.214294 0.0714256 0.167004 55.845 9.96733e-08 
413 1 0.250048 0.0713704 0.125284 55.845 2.13119e-07 
414 1 0.249977 0.107101 0.16699 55.845 -9.75258e-08 
424 1 0.214236 -4.88564e-06 0.167078 55.845 -3.28918e-08 
426 1 0.249927 0.0357333 0.167052 55.845 5.56203e-09 
489 1 0.142857 0.107143 0.0416667 55.845 -2.51541e-07 
499 1 0.142857 0.0357143 0.0416667 55.845 -2.78668e-07 
500 1 0.142783 0.0714183 0.0838624 55.845 -1.14213e-07 
501 1 0.178571 0.0714286 0.0416667 55.845 -1.95198e-07 
502 1 0.178618 0.107168 0.0837319 55.845 -7.04345e-08 
503 1 0.214286 0.107143 0.0416667 55.845 -1.98582e-07 
510 1 0.142848 1.60753e-05 0.0837904 55.845 -1.76924e-07 
511 1 0.178571 0 0.0416667 55.845 -2.6921e-07 
512 1 0.178614 0.0356885 0.083868 55.845 -1.22034e-07 
513 1 0.214286 0.0357143 0.0416667 55.845 -1.57557e-07 
514 1 0.214341 0.071497 0.0838655 55.845 -1.3681e-07 
515 1 0.25 0.0714286 0.0416667 55.845 -1.57617e-07 
516 1 0.250005 0.10714 0.0837596 55.845 -4.68937e-08 
526 1 0.214338 4.63511e-05 0.0838521 55.845 -9.49154e-08 
528 1 0.250003 0.0357676 0.0838146 55.845 -1.33794e-07 
581 1 0.142857 0.0714286 0 55.845 4.94631e-08 
582 1 0.178571 0.107143 0 55.845 -1.38711e-08 
586 1 0.142857 0 0 55.845 -7.99086e-08 
587 1 0.178571 0.0357143 0 55.845 1.16308e-08 
588 1 0.214286 0.0714286 0 55.845 7.20529e-08 
589 1 0.25 0.107143 0 55.845 1.56715e-08 
594 1 0.214286 0 0 55.845 6.62126e-08 
595 1 0.25 0.0357143 0 55.845 7.41763e-08 
313 1 0.285717 0.107147 0.209821 55.845 -1.32441e-07 
323 1 0.250011 -9.08886e-06 0.209637 55.845 -1.93396e-07 
325 1 0.285684 0.0357367 0.209553 55.845 -1.23115e-07 
327 1 0.321346 0.0714834 0.209645 55.845 -4.614e-08 
329 1 0.357095 0.107106 0.20962 55.845 -2.23288e-07 
337 1 0.321405 -2.26786e-06 0.209689 55.845 -1.17279e-07 
339 1 0.357097 0.035705 0.209674 55.845 -5.3347e-08 
415 1 0.285719 0.107135 0.125224 55.845 1.42019e-07 
425 1 0.250037 -7.59258e-06 0.125216 55.845 1.73514e-07 
427 1 0.285671 0.0356243 0.125288 55.845 2.06286e-07 
428 1 0.28573 0.0714034 0.167037 55.845 5.87298e-08 
429 1 0.321367 0.0713814 0.125351 55.845 2.11391e-07 
430 1 0.321382 0.107201 0.166976 55.845 -2.84657e-09 
431 1 0.357138 0.107152 0.125327 55.845 3.05202e-07 
439 1 0.321482 -2.99232e-05 0.125267 55.845 1.54528e-07 
440 1 0.321422 0.0357081 0.167009 55.845 8.38906e-08 
441 1 0.357094 0.0356941 0.125416 55.845 1.95534e-07 
442 1 0.357113 0.0714619 0.166928 55.845 -1.85314e-08 
517 1 0.285714 0.107143 0.0416667 55.845 -1.52463e-07 
527 1 0.25 0 0.0416667 55.845 -2.11232e-07 
529 1 0.285714 0.0357143 0.0416667 55.845 -2.60377e-07 
530 1 0.285706 0.0713692 0.083731 55.845 -9.02583e-08 
531 1 0.321429 0.0714286 0.0416667 55.845 -1.2517e-07 
532 1 0.32143 0.107163 0.0838923 55.845 -5.04576e-08 
533 1 0.357143 0.107143 0.0416667 55.845 -8.71946e-08 
603 1 0.357143 0.0714286 0 55.845 1.3767e-07 
541 1 0.321429 0 0.0416667 55.845 -2.11961e-07 
542 1 0.321417 0.0357339 0.083765 55.845 -1.034e-07 
543 1 0.357143 0.0357143 0.0416667 55.845 -1.02338e-07 
544 1 0.357169 0.0713942 0.0838239 55.845 -4.12536e-08 
602 1 0.321429 0.0357143 0 55.845 1.39114e-08 
596 1 0.285714 0.0714286 0 55.845 -2.09021e-08 
597 1 0.321429 0.107143 0 55.845 8.51008e-08 
612 1 0.464286 0.0357143 0 55.845 2.99977e-08 
611 1 0.428571 0 0 55.845 -1.63031e-08 
610 1 0.464286 0.107143 0 55.845 -6.51056e-09 
609 1 0.428571 0.0714286 0 55.845 -1.77137e-07 
608 1 0.392857 0.0357143 0 55.845 -8.33824e-08 
341 1 0.392752 0.0713736 0.209713 55.845 1.3598e-08 
343 1 0.428544 0.107111 0.209695 55.845 5.43011e-08 
348 1 0.39285 -4.40839e-05 0.209575 55.845 -8.99906e-08 
350 1 0.428525 0.0356482 0.209713 55.845 9.13317e-08 
352 1 0.464244 0.0714491 0.209514 55.845 -3.42636e-08 
355 1 0.464192 2.45709e-05 0.209606 55.845 -5.68472e-08 
443 1 0.392798 0.071352 0.125322 55.845 4.08731e-07 
444 1 0.392856 0.107082 0.167106 55.845 3.68586e-08 
445 1 0.428485 0.107128 0.125351 55.845 2.5075e-07 
604 1 0.392857 0.107143 0 55.845 2.79302e-08 
450 1 0.392868 -5.95918e-05 0.125334 55.845 1.75843e-07 
451 1 0.392769 0.0356441 0.166962 55.845 9.95441e-09 
452 1 0.428545 0.0356615 0.125341 55.845 4.07765e-07 
453 1 0.428515 0.0713804 0.167228 55.845 2.09207e-07 
454 1 0.464166 0.071432 0.125305 55.845 3.78376e-07 
455 1 0.464276 0.107122 0.167078 55.845 1.6273e-07 
456 1 0.428578 -2.61735e-06 0.166991 55.845 1.25102e-08 
457 1 0.46421 -6.87282e-05 0.125414 55.845 1.06397e-07 
458 1 0.464239 0.0357178 0.167101 55.845 -8.96969e-08 
545 1 0.392857 0.0714286 0.0416667 55.845 -1.77591e-07 
546 1 0.392849 0.107053 0.0837735 55.845 1.38942e-08 
547 1 0.428571 0.107143 0.0416667 55.845 -1.93826e-07 
552 1 0.392857 0 0.0416667 55.845 -1.86243e-07 
553 1 0.392883 0.0356692 0.0838253 55.845 -5.99181e-08 
554 1 0.428571 0.0357143 0.0416667 55.845 -1.59002e-07 
555 1 0.428565 0.0713395 0.0838271 55.845 1.89236e-09 
556 1 0.464286 0.0714286 0.0416667 55.845 -1.55165e-07 
557 1 0.464287 0.107146 0.0839211 55.845 -6.83035e-08 
558 1 0.428599 4.98259e-07 0.0838402 55.845 -9.74952e-08 
559 1 0.464286 0 0.0416667 55.845 -8.52777e-08 
560 1 0.464332 0.0356807 0.0839187 55.845 -1.90334e-08 
255 1 -4.37243e-05 0.178517 0.209621 55.845 1.36784e-08 
257 1 0.035711 0.214306 0.209583 55.845 6.85688e-08 
261 1 0.0356036 0.142808 0.209747 55.845 1.38319e-07 
263 1 0.0713702 0.17854 0.209726 55.845 3.11017e-08 
265 1 0.107175 0.214251 0.2098 55.845 3.07027e-08 
273 1 0.107136 0.142873 0.209748 55.845 6.43303e-08 
357 1 -2.41764e-05 0.178631 0.125285 55.845 3.63618e-07 
358 1 4.22694e-05 0.214342 0.167008 55.845 1.11466e-07 
359 1 0.0357309 0.214264 0.125208 55.845 3.54083e-07 
360 1 0.0358238 0.250004 0.16705 55.845 -1.23544e-08 
362 1 -2.76893e-05 0.14285 0.166895 55.845 5.79069e-08 
363 1 0.0356752 0.142867 0.125349 55.845 2.1568e-07 
364 1 0.0357319 0.17864 0.167123 55.845 1.2246e-07 
365 1 0.071384 0.178526 0.125325 55.845 2.50005e-07 
366 1 0.071459 0.214235 0.167079 55.845 1.28286e-07 
367 1 0.107116 0.214216 0.125344 55.845 2.24093e-07 
368 1 0.107108 0.24995 0.167032 55.845 -8.59994e-08 
374 1 0.0713773 0.142857 0.16713 55.845 4.60388e-08 
375 1 0.107071 0.142881 0.125433 55.845 2.74703e-07 
376 1 0.107173 0.178568 0.167052 55.845 2.52917e-08 
459 1 0 0.178571 0.0416667 55.845 -3.81744e-08 
460 1 3.06122e-06 0.214314 0.0838645 55.845 2.11409e-09 
461 1 0.0357143 0.214286 0.0416667 55.845 -2.09449e-07 
462 1 0.0357455 0.249989 0.0839715 55.845 -6.49471e-08 
464 1 -3.0523e-05 0.142834 0.0837163 55.845 1.30975e-07 
465 1 0.0357143 0.142857 0.0416667 55.845 -8.61026e-08 
466 1 0.035715 0.178563 0.0837935 55.845 2.63198e-08 
467 1 0.0714286 0.178571 0.0416667 55.845 -5.39604e-08 
468 1 0.071459 0.214289 0.0838214 55.845 -3.36846e-08 
469 1 0.107143 0.214286 0.0416667 55.845 -2.00849e-07 
470 1 0.10713 0.249957 0.0838925 55.845 -1.90598e-07 
476 1 0.0714978 0.142842 0.0838243 55.845 4.17447e-08 
477 1 0.107143 0.142857 0.0416667 55.845 -1.31163e-07 
478 1 0.107084 0.178574 0.0838393 55.845 5.10481e-08 
561 1 0 0.214286 0 55.845 6.9624e-08 
562 1 0.0357143 0.25 0 55.845 9.44393e-09 
563 1 0 0.142857 0 55.845 7.67451e-08 
564 1 0.0357143 0.178571 0 55.845 9.39629e-08 
565 1 0.0714286 0.214286 0 55.845 -7.04186e-08 
566 1 0.107143 0.25 0 55.845 -1.02387e-07 
569 1 0.0714286 0.142857 0 55.845 8.33225e-08 
570 1 0.107143 0.178571 0 55.845 2.84772e-08 
275 1 0.14287 0.178515 0.209661 55.845 -5.23887e-08 
277 1 0.178619 0.214264 0.209658 55.845 -8.61111e-09 
287 1 0.17852 0.142892 0.209591 55.845 -6.70092e-08 
289 1 0.214166 0.178583 0.209572 55.845 -9.90834e-08 
291 1 0.249966 0.214363 0.209601 55.845 -3.77654e-08 
301 1 0.249865 0.142871 0.209637 55.845 -1.77368e-07 
377 1 0.142828 0.178534 0.125227 55.845 1.44223e-07 
378 1 0.142884 0.21422 0.167104 55.845 -3.1102e-08 
379 1 0.17859 0.214164 0.125148 55.845 1.35801e-07 
388 1 0.142826 0.142822 0.167018 55.845 -1.31264e-08 
389 1 0.178552 0.142789 0.125326 55.845 7.40461e-08 
390 1 0.178495 0.178607 0.167003 55.845 4.1059e-08 
391 1 0.214247 0.17857 0.125236 55.845 2.49496e-07 
392 1 0.214292 0.214331 0.166906 55.845 9.9644e-08 
393 1 0.250033 0.214317 0.125282 55.845 1.19005e-07 
402 1 0.214221 0.142869 0.167063 55.845 2.32128e-08 
403 1 0.250028 0.142801 0.125388 55.845 8.51988e-08 
404 1 0.249942 0.178556 0.167097 55.845 1.56938e-07 
479 1 0.142857 0.178571 0.0416667 55.845 -1.92722e-07 
480 1 0.142802 0.214323 0.0839093 55.845 -1.8355e-07 
481 1 0.178571 0.214286 0.0416667 55.845 -2.55772e-07 
490 1 0.142811 0.142862 0.083896 55.845 -9.89954e-08 
491 1 0.178571 0.142857 0.0416667 55.845 -2.68835e-07 
492 1 0.178587 0.178553 0.0836947 55.845 -3.57013e-08 
493 1 0.214286 0.178571 0.0416667 55.845 -2.07736e-07 
494 1 0.21432 0.214248 0.0836831 55.845 -7.60212e-08 
495 1 0.25 0.214286 0.0416667 55.845 -2.42931e-07 
504 1 0.21427 0.142901 0.0838772 55.845 -4.30041e-08 
505 1 0.25 0.142857 0.0416667 55.845 -2.27927e-07 
506 1 0.249952 0.178531 0.0837854 55.845 1.42345e-08 
571 1 0.142857 0.214286 0 55.845 -1.56745e-07 
576 1 0.142857 0.142857 0 55.845 8.76185e-08 
577 1 0.178571 0.178571 0 55.845 -5.86134e-08 
578 1 0.214286 0.214286 0 55.845 -3.68728e-08 
583 1 0.214286 0.142857 0 55.845 -6.02414e-08 
584 1 0.25 0.178571 0 55.845 -7.02326e-08 
303 1 0.285741 0.178558 0.209614 55.845 -6.20954e-08 
305 1 0.321424 0.214266 0.20959 55.845 -1.5038e-07 
315 1 0.321467 0.142935 0.209648 55.845 -1.00407e-07 
317 1 0.357188 0.17864 0.209694 55.845 -6.87989e-08 
405 1 0.2857 0.178588 0.125369 55.845 1.00889e-07 
406 1 0.285659 0.214343 0.166926 55.845 1.04685e-07 
407 1 0.321438 0.214206 0.125302 55.845 1.76371e-07 
416 1 0.285679 0.14286 0.167105 55.845 -1.14083e-08 
417 1 0.321429 0.142859 0.125367 55.845 2.21301e-07 
418 1 0.321399 0.178583 0.167173 55.845 2.00816e-07 
419 1 0.357132 0.178631 0.125354 55.845 2.45015e-07 
420 1 0.357203 0.214336 0.166989 55.845 1.01257e-07 
432 1 0.357109 0.142863 0.167052 55.845 8.71009e-08 
507 1 0.285714 0.178571 0.0416667 55.845 -1.93334e-07 
508 1 0.285724 0.214326 0.0838766 55.845 -5.91054e-09 
509 1 0.321429 0.214286 0.0416667 55.845 -1.40843e-07 
518 1 0.285754 0.142897 0.0839184 55.845 -5.14259e-08 
519 1 0.321429 0.142857 0.0416667 55.845 -2.05734e-07 
520 1 0.321392 0.178472 0.0839148 55.845 -6.76923e-09 
521 1 0.357143 0.178571 0.0416667 55.845 -2.51183e-07 
522 1 0.357153 0.214285 0.0838079 55.845 -3.77488e-09 
534 1 0.357159 0.14288 0.0837434 55.845 -2.09913e-08 
585 1 0.285714 0.214286 0 55.845 5.7894e-08 
590 1 0.285714 0.142857 0 55.845 2.73331e-09 
591 1 0.321429 0.178571 0 55.845 3.13004e-08 
592 1 0.357143 0.214286 0 55.845 3.56641e-08 
598 1 0.357143 0.142857 0 55.845 -6.94062e-08 
319 1 0.392875 0.21422 0.209585 55.845 -7.6285e-08 
321 1 0.428642 0.250005 0.209592 55.845 -4.59508e-08 
331 1 0.392841 0.142792 0.209565 55.845 -9.31477e-08 
333 1 0.428545 0.178553 0.20962 55.845 -3.73453e-08 
335 1 0.464275 0.214304 0.209602 55.845 -6.08809e-08 
345 1 0.464271 0.142884 0.20962 55.845 1.05873e-08 
606 1 0.464286 0.178571 0 55.845 2.87146e-08 
421 1 0.392901 0.21429 0.125268 55.845 2.48908e-07 
422 1 0.392961 0.250063 0.16695 55.845 8.72938e-08 
423 1 0.4286 0.249973 0.125406 55.845 3.03234e-07 
433 1 0.392865 0.142818 0.12534 55.845 2.60613e-07 
434 1 0.392924 0.178508 0.167042 55.845 1.32769e-07 
435 1 0.428512 0.178556 0.12521 55.845 2.30685e-07 
436 1 0.428549 0.214225 0.166998 55.845 7.02769e-08 
437 1 0.4643 0.214228 0.125257 55.845 1.73745e-07 
605 1 0.428571 0.142857 0 55.845 1.77335e-07 
446 1 0.428571 0.142819 0.166999 55.845 1.95408e-07 
447 1 0.464242 0.142862 0.125222 55.845 1.01969e-07 
448 1 0.464237 0.178568 0.166864 55.845 1.71182e-07 
523 1 0.392857 0.214286 0.0416667 55.845 -2.84398e-07 
524 1 0.392896 0.249989 0.0837962 55.845 -2.76341e-08 
525 1 0.428571 0.25 0.0416667 55.845 -1.70401e-07 
535 1 0.392857 0.142857 0.0416667 55.845 -1.90921e-07 
536 1 0.392838 0.178579 0.0838336 55.845 -1.63378e-07 
537 1 0.428571 0.178571 0.0416667 55.845 -1.92231e-07 
538 1 0.428589 0.214345 0.08391 55.845 -1.06016e-07 
539 1 0.464286 0.214286 0.0416667 55.845 -2.61982e-07 
548 1 0.428568 0.142796 0.0838826 55.845 -9.91323e-08 
549 1 0.464286 0.142857 0.0416667 55.845 -9.80893e-08 
550 1 0.464217 0.178584 0.0837337 55.845 -8.27933e-08 
593 1 0.392857 0.25 0 55.845 -2.04388e-08 
599 1 0.392857 0.178571 0 55.845 5.78015e-09 
600 1 0.428571 0.214286 0 55.845 5.02977e-08 
3 1 -3.47029e-05 0.107174 0.462121 55.845 -8.39941e-08 
7 1 -2.73e-05 0.0357249 0.462072 55.845 3.47997e-08 
8 1 0.0357355 0.0715333 0.462143 55.845 7.04929e-08 
9 1 0.0715115 0.107132 0.462057 55.845 -4.73308e-08 
13 1 0.0357018 8.50724e-06 0.462061 55.845 1.72817e-07 
14 1 0.0714724 0.0357622 0.462015 55.845 7.07281e-08 
15 1 0.107154 0.0714302 0.462049 55.845 1.73127e-07 
20 1 0.107131 -1.00705e-05 0.46208 55.845 1.78899e-07 
55 1 -2.34878e-05 0.107123 0.378456 55.845 -9.12987e-08 
63 1 -2.05703e-07 0.0357934 0.37862 55.845 9.24547e-09 
64 1 -3.78592e-05 0.0714453 0.420936 55.845 4.0557e-08 
65 1 0.0356894 0.0714269 0.3786 55.845 -9.79788e-08 
66 1 0.0356856 0.107105 0.420806 55.845 -4.82647e-08 
67 1 0.0713645 0.107061 0.3786 55.845 -6.82062e-08 
74 1 2.0552e-05 1.02577e-05 0.420892 55.845 1.25505e-07 
75 1 0.0357215 4.84603e-05 0.378601 55.845 -4.4155e-09 
76 1 0.0357363 0.035804 0.42097 55.845 1.45603e-07 
77 1 0.0713686 0.0356904 0.378588 55.845 1.00494e-07 
78 1 0.0714887 0.0714463 0.420801 55.845 9.01729e-08 
79 1 0.107132 0.0714146 0.378498 55.845 7.07404e-08 
80 1 0.107085 0.107095 0.420789 55.845 1.85721e-07 
88 1 0.0713952 6.90241e-05 0.420832 55.845 9.56872e-08 
89 1 0.107074 7.47807e-05 0.378633 55.845 -1.93067e-08 
90 1 0.107221 0.035684 0.420783 55.845 4.01234e-07 
157 1 -4.88094e-05 0.10718 0.293518 55.845 2.21402e-07 
165 1 -5.3334e-05 0.0357315 0.29368 55.845 7.87232e-08 
166 1 -2.04269e-05 0.0714957 0.335843 55.845 -1.70112e-07 
167 1 0.035657 0.0714228 0.293588 55.845 1.64517e-07 
168 1 0.0357399 0.10715 0.335716 55.845 -1.4801e-07 
169 1 0.0714196 0.107138 0.293627 55.845 1.68524e-07 
176 1 -5.52884e-06 -6.97953e-05 0.335951 55.845 -1.36352e-07 
177 1 0.0357315 -1.10418e-05 0.293651 55.845 -1.74653e-08 
178 1 0.0356459 0.0357883 0.335807 55.845 -3.21677e-07 
179 1 0.0713958 0.0357318 0.293638 55.845 1.22602e-07 
180 1 0.0713885 0.0713696 0.335698 55.845 -5.11197e-09 
181 1 0.107088 0.0714261 0.293453 55.845 2.43552e-07 
182 1 0.107103 0.107062 0.335821 55.845 -1.53945e-07 
190 1 0.0714003 -8.0099e-06 0.335772 55.845 -1.14064e-07 
191 1 0.10712 2.83187e-05 0.29362 55.845 1.63019e-07 
192 1 0.10709 0.0357721 0.335799 55.845 -5.33312e-08 
268 1 -7.17671e-05 0.0714636 0.251724 55.845 -3.50929e-07 
270 1 0.0356842 0.107093 0.251777 55.845 -4.04803e-07 
278 1 -8.3803e-05 2.6652e-05 0.251698 55.845 -5.13443e-07 
280 1 0.0357113 0.0357064 0.251774 55.845 -4.57647e-07 
282 1 0.0713554 0.0714007 0.251798 55.845 -5.09179e-07 
284 1 0.107122 0.107159 0.251679 55.845 -3.83919e-07 
292 1 0.0714141 -1.70581e-05 0.251797 55.845 -4.5213e-07 
294 1 0.107181 0.0356338 0.25166 55.845 -4.59021e-07 
16 1 0.142843 0.107124 0.461976 55.845 1.04101e-07 
21 1 0.142849 0.0357214 0.462099 55.845 1.98488e-07 
22 1 0.178579 0.0713382 0.46211 55.845 -7.63071e-08 
23 1 0.214284 0.107084 0.462012 55.845 1.36425e-07 
27 1 0.178625 2.87425e-05 0.462119 55.845 6.88164e-08 
28 1 0.214248 0.0356798 0.462119 55.845 2.06256e-08 
29 1 0.249988 0.0714364 0.462102 55.845 1.17421e-07 
81 1 0.14285 0.107079 0.378537 55.845 -9.77953e-09 
91 1 0.142851 0.0357518 0.378471 55.845 6.64805e-08 
92 1 0.142904 0.0713862 0.420811 55.845 3.45006e-07 
93 1 0.178594 0.0714237 0.378544 55.845 -8.46412e-09 
94 1 0.178534 0.107047 0.420916 55.845 9.71715e-08 
95 1 0.214125 0.107118 0.378607 55.845 -1.22257e-07 
102 1 0.142822 6.73399e-06 0.420813 55.845 4.09149e-07 
103 1 0.178549 6.38484e-05 0.378503 55.845 -9.84952e-08 
104 1 0.178548 0.0357012 0.420831 55.845 1.12472e-07 
105 1 0.214268 0.0357543 0.378524 55.845 -9.02599e-08 
106 1 0.214282 0.0713374 0.420915 55.845 1.08322e-07 
107 1 0.250025 0.0714529 0.378552 55.845 -1.35101e-07 
108 1 0.249968 0.107137 0.420845 55.845 1.80234e-07 
118 1 0.214272 -2.79758e-05 0.420776 55.845 1.67387e-07 
120 1 0.25 0.0357189 0.420832 55.845 7.96746e-08 
183 1 0.14288 0.107107 0.293627 55.845 1.25066e-07 
193 1 0.142791 0.0357502 0.293685 55.845 2.39871e-07 
194 1 0.142915 0.0714583 0.335783 55.845 4.30133e-09 
195 1 0.178519 0.0714246 0.293673 55.845 2.88878e-07 
196 1 0.178564 0.107173 0.335757 55.845 3.91539e-09 
197 1 0.214254 0.107137 0.293669 55.845 1.05308e-07 
204 1 0.14284 1.28361e-05 0.335757 55.845 -1.7033e-09 
205 1 0.178511 8.80997e-06 0.293586 55.845 1.82453e-07 
206 1 0.178625 0.0357357 0.335705 55.845 1.6261e-07 
207 1 0.214274 0.03575 0.293607 55.845 8.58384e-08 
208 1 0.214245 0.0714517 0.335884 55.845 -7.96764e-08 
209 1 0.249992 0.0714119 0.293688 55.845 8.94857e-09 
210 1 0.249914 0.107167 0.335783 55.845 -1.11763e-07 
220 1 0.214272 2.83277e-05 0.335783 55.845 -1.22243e-07 
222 1 0.249974 0.0357301 0.33576 55.845 -1.17103e-07 
296 1 0.1428 0.071486 0.251777 55.845 -3.94638e-07 
298 1 0.178579 0.107167 0.251707 55.845 -2.76516e-07 
306 1 0.142819 -4.63116e-05 0.251772 55.845 -3.59959e-07 
308 1 0.178566 0.0357447 0.251807 55.845 -4.24109e-07 
310 1 0.214244 0.071373 0.251803 55.845 -4.0145e-07 
312 1 0.24994 0.107094 0.251693 55.845 -3.23849e-07 
322 1 0.214232 4.82224e-05 0.25173 55.845 -4.2177e-07 
324 1 0.250008 0.0357554 0.251755 55.845 -3.722e-07 
30 1 0.285737 0.107103 0.461937 55.845 1.01649e-07 
35 1 0.250033 1.17056e-05 0.461954 55.845 -5.40628e-08 
36 1 0.285659 0.0358196 0.462118 55.845 7.83438e-08 
37 1 0.321459 0.0714174 0.461994 55.845 1.35858e-07 
38 1 0.357208 0.107176 0.461958 55.845 5.24283e-08 
42 1 0.321398 3.02704e-05 0.462156 55.845 2.26619e-07 
43 1 0.357196 0.0356883 0.462131 55.845 1.12539e-07 
109 1 0.285639 0.107168 0.378544 55.845 -2.10685e-07 
119 1 0.249922 1.55922e-05 0.378524 55.845 -1.72626e-08 
121 1 0.285645 0.0356803 0.37862 55.845 -2.43286e-07 
122 1 0.285737 0.0713955 0.420783 55.845 -2.38618e-08 
123 1 0.321387 0.0714469 0.378591 55.845 -2.08781e-07 
124 1 0.321372 0.107184 0.420867 55.845 2.19023e-07 
125 1 0.357131 0.107098 0.378585 55.845 -5.58576e-08 
133 1 0.321373 5.04097e-05 0.378678 55.845 -6.96089e-08 
134 1 0.32135 0.0356653 0.421034 55.845 2.23306e-07 
135 1 0.357065 0.0357501 0.378549 55.845 -6.44465e-08 
136 1 0.357064 0.0713206 0.420792 55.845 3.39516e-07 
211 1 0.285648 0.107059 0.293609 55.845 8.32449e-08 
221 1 0.249971 6.45779e-05 0.2937 55.845 4.20486e-08 
223 1 0.285655 0.0356915 0.293523 55.845 4.83534e-08 
224 1 0.285666 0.0714016 0.335945 55.845 -1.10014e-07 
225 1 0.321388 0.0713591 0.293662 55.845 1.94737e-07 
226 1 0.321376 0.107093 0.335839 55.845 -7.09356e-08 
227 1 0.357145 0.107097 0.29367 55.845 1.6417e-07 
235 1 0.321362 -1.21791e-05 0.29369 55.845 8.93667e-08 
236 1 0.321377 0.0356801 0.335848 55.845 -6.86116e-08 
237 1 0.357014 0.0356613 0.293645 55.845 1.60895e-07 
238 1 0.35707 0.0713677 0.335812 55.845 3.72762e-08 
326 1 0.285747 0.0714057 0.251684 55.845 -3.19793e-07 
328 1 0.321406 0.107159 0.251698 55.845 -3.47511e-07 
338 1 0.321474 0.0357103 0.251705 55.845 -3.48732e-07 
340 1 0.357072 0.0714715 0.251689 55.845 -2.54883e-07 
44 1 0.39275 0.0714507 0.462143 55.845 1.89944e-07 
45 1 0.428495 0.107139 0.461999 55.845 1.01018e-07 
47 1 0.392857 -9.87736e-06 0.462172 55.845 3.33865e-07 
48 1 0.428535 0.0356387 0.462087 55.845 1.45486e-07 
49 1 0.464273 0.0713644 0.462088 55.845 9.62223e-08 
50 1 0.464303 -3.58777e-05 0.462017 55.845 -1.37505e-09 
137 1 0.392839 0.0713771 0.378582 55.845 -8.00256e-08 
138 1 0.392893 0.107073 0.420706 55.845 2.564e-07 
139 1 0.428517 0.107124 0.378566 55.845 -1.21796e-07 
144 1 0.392828 6.52334e-05 0.378622 55.845 -1.58785e-07 
145 1 0.392859 0.0356805 0.420892 55.845 3.08649e-07 
146 1 0.428559 0.0357059 0.37854 55.845 -1.4363e-07 
147 1 0.428592 0.0713746 0.420882 55.845 3.27456e-07 
148 1 0.464319 0.0713877 0.378628 55.845 -7.24398e-08 
149 1 0.464269 0.107113 0.42085 55.845 2.17317e-07 
150 1 0.42848 -2.62731e-06 0.420828 55.845 3.25715e-07 
151 1 0.464248 -3.83222e-05 0.378564 55.845 -1.02486e-07 
152 1 0.464224 0.0357163 0.420912 55.845 2.91301e-07 
239 1 0.392773 0.0714049 0.293578 55.845 3.00801e-07 
240 1 0.392837 0.107045 0.335815 55.845 2.93676e-08 
241 1 0.428544 0.107141 0.29365 55.845 2.03403e-07 
246 1 0.392787 -3.60399e-05 0.293653 55.845 1.80311e-07 
247 1 0.392823 0.0357673 0.335796 55.845 1.13036e-07 
248 1 0.428481 0.03572 0.293561 55.845 2.8741e-07 
249 1 0.428512 0.0714032 0.335818 55.845 3.96846e-08 
250 1 0.464139 0.0713875 0.29354 55.845 2.8072e-07 
251 1 0.46424 0.107072 0.335891 55.845 6.03678e-08 
252 1 0.428509 -2.06138e-07 0.335751 55.845 1.25193e-08 
253 1 0.464225 -1.14789e-05 0.293667 55.845 1.11404e-07 
254 1 0.46424 0.0356756 0.335855 55.845 9.88693e-08 
342 1 0.392797 0.107134 0.251822 55.845 -2.59389e-07 
349 1 0.392786 0.0356818 0.251814 55.845 -1.62569e-07 
351 1 0.428511 0.0713763 0.251707 55.845 -1.35759e-07 
353 1 0.464257 0.107145 0.251725 55.845 -2.06272e-07 
354 1 0.428503 -1.66744e-05 0.251668 55.845 -3.18381e-07 
356 1 0.464243 0.0357318 0.251838 55.845 -2.59892e-07 
1 1 -3.04764e-05 0.178585 0.462044 55.845 -3.94969e-08 
2 1 0.0356886 0.214313 0.462115 55.845 -3.53105e-08 
4 1 0.0357403 0.142854 0.462136 55.845 -3.73311e-08 
5 1 0.0713996 0.178611 0.461993 55.845 -2.42127e-08 
6 1 0.1071 0.214257 0.461958 55.845 5.66607e-08 
10 1 0.107143 0.142804 0.46211 55.845 -7.01004e-10 
51 1 9.88577e-06 0.17852 0.37866 55.845 -1.15843e-07 
52 1 -9.07041e-06 0.214329 0.420924 55.845 -6.73671e-08 
53 1 0.0357294 0.214216 0.378574 55.845 -5.42463e-08 
54 1 0.0356112 0.250019 0.420823 55.845 2.27136e-07 
56 1 -7.93768e-06 0.142876 0.420885 55.845 -1.989e-08 
57 1 0.0357183 0.142858 0.378731 55.845 -1.37013e-07 
58 1 0.0356702 0.178543 0.420882 55.845 -2.54718e-08 
59 1 0.0714495 0.178525 0.378455 55.845 -7.09607e-08 
60 1 0.0713717 0.214298 0.420841 55.845 1.08566e-07 
61 1 0.1071 0.214261 0.378552 55.845 -4.94842e-08 
62 1 0.107171 0.249975 0.420821 55.845 1.62666e-07 
68 1 0.0714243 0.142833 0.420829 55.845 -4.1425e-08 
69 1 0.10712 0.142786 0.378443 55.845 -4.55658e-08 
70 1 0.107021 0.178541 0.420737 55.845 1.06009e-07 
153 1 3.08401e-05 0.178443 0.293474 55.845 1.5403e-07 
154 1 2.14565e-05 0.214216 0.335945 55.845 -1.3295e-07 
155 1 0.0357185 0.214239 0.293631 55.845 1.07316e-07 
156 1 0.0356842 0.250055 0.335831 55.845 -1.52074e-07 
158 1 -1.80777e-05 0.14286 0.335754 55.845 -7.47913e-08 
159 1 0.0357285 0.142838 0.293642 55.845 5.83067e-08 
160 1 0.0356602 0.178492 0.33578 55.845 -2.59507e-07 
161 1 0.071421 0.178563 0.29358 55.845 8.11315e-08 
162 1 0.0713767 0.214328 0.335868 55.845 -1.57518e-07 
163 1 0.107135 0.214296 0.293663 55.845 2.31273e-07 
164 1 0.107155 0.249965 0.335928 55.845 1.31031e-08 
170 1 0.071388 0.142799 0.335776 55.845 -2.47708e-07 
171 1 0.107133 0.142837 0.293674 55.845 1.69382e-07 
172 1 0.107107 0.178586 0.33576 55.845 -1.40243e-07 
256 1 -3.53988e-07 0.21427 0.251796 55.845 -1.8361e-07 
258 1 0.0356405 0.250044 0.251797 55.845 -2.7917e-07 
260 1 -4.19744e-05 0.142811 0.251577 55.845 -4.44325e-07 
262 1 0.0357128 0.178571 0.251607 55.845 -3.64512e-07 
264 1 0.0714167 0.2143 0.251802 55.845 -3.41469e-07 
266 1 0.107113 0.249941 0.251712 55.845 -4.11295e-07 
272 1 0.0714295 0.142918 0.251726 55.845 -4.15104e-07 
274 1 0.107175 0.178539 0.251751 55.845 -2.99817e-07 
11 1 0.142729 0.178497 0.461991 55.845 2.0838e-07 
12 1 0.178614 0.214178 0.462109 55.845 1.6083e-07 
17 1 0.178506 0.142883 0.46204 55.845 -5.38138e-08 
18 1 0.214244 0.178507 0.462065 55.845 1.7288e-07 
19 1 0.24999 0.214185 0.461925 55.845 1.93438e-07 
24 1 0.24985 0.142812 0.461987 55.845 1.92874e-07 
71 1 0.142808 0.178497 0.378502 55.845 -2.95108e-08 
72 1 0.14291 0.214238 0.420816 55.845 2.66442e-07 
73 1 0.178534 0.214236 0.378553 55.845 7.82021e-08 
82 1 0.142677 0.142807 0.420863 55.845 2.34614e-07 
83 1 0.178488 0.142847 0.37875 55.845 1.17599e-08 
84 1 0.178492 0.178547 0.420908 55.845 -1.06658e-08 
85 1 0.214247 0.17853 0.378535 55.845 -1.8886e-08 
86 1 0.214261 0.214267 0.420805 55.845 1.82959e-07 
87 1 0.250009 0.21427 0.378452 55.845 7.87741e-08 
96 1 0.214257 0.142775 0.420756 55.845 5.47105e-08 
97 1 0.250012 0.142828 0.378474 55.845 -1.35659e-07 
98 1 0.249914 0.178534 0.420719 55.845 1.03853e-07 
173 1 0.142904 0.178587 0.29359 55.845 2.33922e-07 
174 1 0.142843 0.214295 0.335889 55.845 -6.94187e-08 
175 1 0.178585 0.214295 0.293663 55.845 1.9733e-07 
184 1 0.142846 0.142795 0.335882 55.845 -6.92492e-09 
185 1 0.178525 0.14289 0.293702 55.845 1.82695e-07 
186 1 0.17858 0.178575 0.335908 55.845 -7.24082e-08 
187 1 0.214243 0.178546 0.2936 55.845 9.97549e-08 
188 1 0.214286 0.214213 0.335844 55.845 -8.61861e-08 
189 1 0.250038 0.214211 0.293651 55.845 2.27545e-07 
198 1 0.214265 0.14278 0.335867 55.845 -1.01858e-08 
199 1 0.249988 0.14282 0.293581 55.845 1.24466e-07 
200 1 0.249959 0.178534 0.335771 55.845 -8.58797e-08 
276 1 0.142841 0.214248 0.251709 55.845 -3.095e-07 
286 1 0.142928 0.142817 0.251831 55.845 -3.19829e-07 
288 1 0.178591 0.178565 0.251663 55.845 -3.24663e-07 
290 1 0.214341 0.214266 0.251632 55.845 -2.65145e-07 
300 1 0.214285 0.142788 0.251653 55.845 -3.93005e-07 
302 1 0.249973 0.178576 0.251673 55.845 -2.91419e-07 
25 1 0.285653 0.178538 0.462025 55.845 -1.47947e-09 
26 1 0.321451 0.214303 0.461842 55.845 7.79802e-08 
31 1 0.321393 0.142856 0.461916 55.845 1.2426e-07 
32 1 0.357119 0.178671 0.462018 55.845 3.56897e-08 
99 1 0.285695 0.178554 0.378478 55.845 -6.84143e-08 
100 1 0.285671 0.214217 0.420737 55.845 1.06105e-07 
101 1 0.321478 0.214292 0.378492 55.845 -2.6475e-08 
110 1 0.285676 0.142894 0.420745 55.845 1.49184e-08 
111 1 0.321323 0.142863 0.378456 55.845 -2.81196e-07 
112 1 0.321347 0.178668 0.420823 55.845 3.70269e-08 
113 1 0.35713 0.178542 0.378533 55.845 -1.15221e-07 
114 1 0.357138 0.214306 0.420741 55.845 1.36913e-07 
126 1 0.357058 0.142908 0.420798 55.845 1.50525e-07 
201 1 0.28569 0.178477 0.293501 55.845 1.1856e-07 
202 1 0.285754 0.214251 0.335727 55.845 -5.64937e-09 
203 1 0.321411 0.21428 0.293522 55.845 1.74815e-07 
212 1 0.285716 0.142846 0.335711 55.845 -7.61881e-08 
213 1 0.32143 0.142776 0.293617 55.845 7.86182e-08 
214 1 0.321444 0.178543 0.335644 55.845 -1.4341e-07 
215 1 0.357142 0.178565 0.293644 55.845 7.12206e-08 