ITEM: TIMESTEP
7400
ITEM: NUMBER OF ATOMS
5880
ITEM: BOX BOUNDS pp pp ff
-27.9053 27.9053
-27.9053 27.9053
0 34.092
ITEM: ATOMS id type xs ys zs mass q 
259 1 -3.56125e-05 0.10712 0.209638 55.845 -3.46912e-07 
267 1 2.7048e-05 0.0356472 0.209815 55.845 -2.75959e-07 
269 1 0.0358056 0.0714853 0.209802 55.845 -4.34261e-07 
271 1 0.0716175 0.107137 0.20992 55.845 -5.05392e-07 
279 1 0.0357368 1.13396e-05 0.20966 55.845 -4.30407e-07 
281 1 0.0714635 0.0357924 0.20992 55.845 -4.63027e-07 
283 1 0.107266 0.0713918 0.20994 55.845 -5.45653e-07 
293 1 0.107282 4.88582e-05 0.209877 55.845 -3.27316e-07 
361 1 -7.23267e-05 0.107114 0.125493 55.845 6.10366e-08 
369 1 7.89532e-05 0.0356484 0.125488 55.845 -2.5525e-08 
370 1 3.09413e-05 0.0713365 0.16742 55.845 1.36646e-07 
371 1 0.0357864 0.071432 0.125478 55.845 5.52229e-08 
372 1 0.0357541 0.107156 0.16748 55.845 1.48829e-07 
373 1 0.0714507 0.107201 0.125515 55.845 1.31127e-08 
380 1 4.20008e-05 3.83321e-05 0.167472 55.845 2.18629e-07 
381 1 0.0357127 -3.31124e-05 0.12541 55.845 1.42879e-07 
382 1 0.0356877 0.0356705 0.167619 55.845 2.21604e-07 
383 1 0.0713855 0.0356699 0.125583 55.845 -8.09109e-09 
384 1 0.0714627 0.0714475 0.167652 55.845 2.59349e-07 
385 1 0.107241 0.0714234 0.125517 55.845 5.84064e-08 
386 1 0.107189 0.107055 0.167604 55.845 2.96136e-07 
394 1 0.071444 -9.11914e-06 0.167546 55.845 2.25248e-07 
395 1 0.107115 -1.32433e-05 0.125617 55.845 1.24454e-07 
396 1 0.107218 0.0358173 0.16772 55.845 1.42849e-07 
463 1 0 0.107143 0.0416667 55.845 8.67127e-07 
471 1 0 0.0357143 0.0416667 55.845 8.60451e-07 
472 1 8.1572e-05 0.0713314 0.083894 55.845 -1.00978e-06 
473 1 0.0357143 0.0714286 0.0416667 55.845 8.85897e-07 
474 1 0.0357279 0.107225 0.0839185 55.845 -7.11201e-07 
475 1 0.0714286 0.107143 0.0416667 55.845 1.11344e-06 
482 1 4.0571e-05 -6.42823e-05 0.0838764 55.845 -6.90776e-07 
483 1 0.0357143 0 0.0416667 55.845 1.06079e-06 
484 1 0.035667 0.035747 0.0838304 55.845 -8.53041e-07 
485 1 0.0714286 0.0357143 0.0416667 55.845 9.7167e-07 
486 1 0.0714491 0.0714305 0.0839474 55.845 -6.06066e-07 
487 1 0.107143 0.0714286 0.0416667 55.845 1.20743e-06 
488 1 0.107223 0.107187 0.0838666 55.845 -5.63611e-07 
496 1 0.0714098 6.79067e-06 0.0838538 55.845 -8.15233e-07 
497 1 0.107143 0 0.0416667 55.845 8.45227e-07 
498 1 0.107195 0.0356521 0.0838819 55.845 -6.42514e-07 
567 1 0 0.0714286 0 55.845 -5.20724e-07 
568 1 0.0357143 0.107143 0 55.845 -2.92232e-07 
572 1 0 0 0 55.845 -3.61751e-08 
573 1 0.0357143 0.0357143 0 55.845 -2.91529e-07 
574 1 0.0714286 0.0714286 0 55.845 -1.62418e-07 
575 1 0.107143 0.107143 0 55.845 -1.62405e-07 
579 1 0.0714286 0 0 55.845 -2.77311e-07 
580 1 0.107143 0.0357143 0 55.845 -1.51248e-07 
285 1 0.142868 0.107096 0.209827 55.845 -4.14842e-07 
295 1 0.142935 0.0357123 0.209912 55.845 -4.30874e-07 
297 1 0.178594 0.0714033 0.209893 55.845 -3.30534e-07 
299 1 0.21429 0.107097 0.210032 55.845 -1.94806e-07 
307 1 0.178555 -6.91385e-05 0.209735 55.845 -2.72433e-07 
309 1 0.214275 0.0356658 0.209941 55.845 -1.90867e-07 
311 1 0.249863 0.0713621 0.209887 55.845 -1.19784e-07 
387 1 0.142911 0.107237 0.125645 55.845 2.03382e-08 
397 1 0.142922 0.0357566 0.125481 55.845 1.92851e-07 
398 1 0.143055 0.0714542 0.167733 55.845 1.81428e-07 
399 1 0.178584 0.0713816 0.125469 55.845 1.58357e-07 
400 1 0.178587 0.107176 0.16771 55.845 7.24498e-08 
401 1 0.214307 0.107118 0.125659 55.845 2.04051e-07 
408 1 0.142811 -8.88495e-05 0.167548 55.845 1.13119e-07 
409 1 0.178515 1.78435e-05 0.125475 55.845 2.86826e-07 
410 1 0.178641 0.0356451 0.167562 55.845 6.9974e-08 
411 1 0.214261 0.0357965 0.125595 55.845 2.23181e-07 
412 1 0.214255 0.0713537 0.167743 55.845 8.88034e-08 
413 1 0.249879 0.07157 0.125672 55.845 2.21038e-07 
414 1 0.249973 0.107149 0.167814 55.845 -4.63006e-08 
424 1 0.214211 -2.64377e-06 0.167531 55.845 -7.54832e-08 
426 1 0.250009 0.0356588 0.167712 55.845 1.48887e-08 
489 1 0.142857 0.107143 0.0416667 55.845 9.82029e-07 
499 1 0.142857 0.0357143 0.0416667 55.845 1.09983e-06 
500 1 0.142953 0.0714787 0.0839003 55.845 -5.81328e-07 
501 1 0.178571 0.0714286 0.0416667 55.845 1.00242e-06 
502 1 0.17866 0.107134 0.083882 55.845 -9.07427e-07 
503 1 0.214286 0.107143 0.0416667 55.845 9.46053e-07 
510 1 0.142815 -7.85512e-06 0.0840813 55.845 -8.84779e-07 
511 1 0.178571 0 0.0416667 55.845 1.04614e-06 
512 1 0.178579 0.0357261 0.0837954 55.845 -7.65285e-07 
513 1 0.214286 0.0357143 0.0416667 55.845 9.75446e-07 
514 1 0.21435 0.0714421 0.0839328 55.845 -1.00786e-06 
515 1 0.25 0.0714286 0.0416667 55.845 8.40564e-07 
516 1 0.24995 0.107086 0.0839851 55.845 -9.78104e-07 
526 1 0.214207 5.13053e-05 0.0838837 55.845 -7.90454e-07 
528 1 0.250005 0.0357369 0.0839483 55.845 -1.00102e-06 
581 1 0.142857 0.0714286 0 55.845 -1.05168e-07 
582 1 0.178571 0.107143 0 55.845 -2.89152e-07 
586 1 0.142857 0 0 55.845 -3.54812e-07 
587 1 0.178571 0.0357143 0 55.845 -2.46226e-07 
588 1 0.214286 0.0714286 0 55.845 -3.45489e-07 
589 1 0.25 0.107143 0 55.845 -2.39023e-07 
594 1 0.214286 0 0 55.845 -2.86158e-07 
595 1 0.25 0.0357143 0 55.845 -4.31355e-07 
313 1 0.285743 0.107092 0.209807 55.845 -2.2972e-07 
323 1 0.249902 -3.70777e-05 0.20998 55.845 -1.52024e-07 
325 1 0.285662 0.0357351 0.209942 55.845 -1.51834e-07 
327 1 0.321348 0.0713343 0.210048 55.845 -3.27821e-07 
329 1 0.357185 0.10712 0.209953 55.845 -3.58738e-07 
337 1 0.321541 3.8054e-06 0.20976 55.845 -1.48967e-07 
339 1 0.357135 0.0356702 0.209691 55.845 -3.90194e-07 
415 1 0.285699 0.107095 0.125535 55.845 1.73295e-07 
425 1 0.249894 -4.87559e-05 0.12556 55.845 2.82447e-07 
427 1 0.285625 0.0358117 0.125593 55.845 1.00243e-07 
428 1 0.285713 0.0713942 0.167867 55.845 2.85182e-08 
429 1 0.321388 0.0714594 0.125364 55.845 1.0878e-07 
430 1 0.321429 0.107062 0.167701 55.845 6.00936e-08 
431 1 0.35708 0.10717 0.125555 55.845 2.09833e-09 
439 1 0.321488 4.53669e-05 0.125459 55.845 1.28163e-07 
440 1 0.321419 0.0357904 0.167704 55.845 1.00752e-07 
441 1 0.357109 0.0357461 0.125503 55.845 3.59294e-08 
442 1 0.357234 0.0714064 0.167597 55.845 1.26908e-07 
517 1 0.285714 0.107143 0.0416667 55.845 9.5158e-07 
527 1 0.25 0 0.0416667 55.845 1.11462e-06 
529 1 0.285714 0.0357143 0.0416667 55.845 9.10375e-07 
530 1 0.285704 0.071396 0.0839509 55.845 -9.66157e-07 
531 1 0.321429 0.0714286 0.0416667 55.845 9.61971e-07 
532 1 0.321422 0.107112 0.0839815 55.845 -8.68832e-07 
533 1 0.357143 0.107143 0.0416667 55.845 9.06379e-07 
603 1 0.357143 0.0714286 0 55.845 -2.13116e-07 
541 1 0.321429 0 0.0416667 55.845 1.02649e-06 
542 1 0.321371 0.0357014 0.0838445 55.845 -8.3916e-07 
543 1 0.357143 0.0357143 0.0416667 55.845 1.0697e-06 
544 1 0.357198 0.0714696 0.0839041 55.845 -6.74087e-07 
602 1 0.321429 0.0357143 0 55.845 -3.30331e-07 
596 1 0.285714 0.0714286 0 55.845 -4.01872e-07 
597 1 0.321429 0.107143 0 55.845 -2.98149e-07 
612 1 0.464286 0.0357143 0 55.845 -2.63518e-07 
611 1 0.428571 0 0 55.845 -2.42523e-07 
610 1 0.464286 0.107143 0 55.845 -2.1922e-07 
609 1 0.428571 0.0714286 0 55.845 -1.31036e-07 
608 1 0.392857 0.0357143 0 55.845 -1.32722e-07 
341 1 0.392887 0.0713646 0.209936 55.845 -4.00411e-07 
343 1 0.428582 0.107074 0.209901 55.845 -2.14201e-07 
348 1 0.392868 -4.53377e-06 0.209939 55.845 -2.03416e-07 
350 1 0.428522 0.035643 0.20973 55.845 -2.74159e-07 
352 1 0.464213 0.071456 0.209827 55.845 -2.56034e-07 
355 1 0.464179 0.000100209 0.209998 55.845 -1.2268e-07 
443 1 0.392796 0.0714805 0.125547 55.845 2.1191e-07 
444 1 0.392845 0.107068 0.167743 55.845 8.0432e-08 
445 1 0.428591 0.107103 0.125607 55.845 1.24625e-07 
604 1 0.392857 0.107143 0 55.845 -2.84779e-07 
450 1 0.392767 -3.91341e-05 0.125534 55.845 7.69742e-08 
451 1 0.392854 0.0357218 0.167719 55.845 9.18392e-08 
452 1 0.428423 0.0357538 0.125398 55.845 1.9203e-07 
453 1 0.42851 0.0714471 0.167665 55.845 3.09544e-08 
454 1 0.464248 0.0714155 0.125484 55.845 2.28511e-07 
455 1 0.464235 0.107105 0.167569 55.845 -9.32063e-08 
456 1 0.42865 2.33407e-05 0.167596 55.845 6.08316e-08 
457 1 0.464201 -8.0631e-05 0.125558 55.845 1.05205e-07 
458 1 0.464249 0.0357386 0.167596 55.845 -2.99897e-08 
545 1 0.392857 0.0714286 0.0416667 55.845 1.16344e-06 
546 1 0.39277 0.107206 0.0839225 55.845 -7.11928e-07 
547 1 0.428571 0.107143 0.0416667 55.845 1.08719e-06 
552 1 0.392857 0 0.0416667 55.845 9.28415e-07 
553 1 0.392761 0.035743 0.0838187 55.845 -6.97501e-07 
554 1 0.428571 0.0357143 0.0416667 55.845 1.12299e-06 
555 1 0.428437 0.0714972 0.0838096 55.845 -7.18402e-07 
556 1 0.464286 0.0714286 0.0416667 55.845 1.044e-06 
557 1 0.464319 0.107156 0.083863 55.845 -7.69284e-07 
558 1 0.428426 1.88048e-05 0.083936 55.845 -9.39773e-07 
559 1 0.464286 0 0.0416667 55.845 9.77232e-07 
560 1 0.464265 0.035726 0.0837724 55.845 -8.48974e-07 
255 1 4.16344e-05 0.178546 0.210082 55.845 -5.28768e-07 
257 1 0.0357323 0.21429 0.209913 55.845 -3.70372e-07 
261 1 0.0357926 0.142874 0.210024 55.845 -5.46345e-07 
263 1 0.0715404 0.17857 0.210033 55.845 -3.69592e-07 
265 1 0.107217 0.214298 0.209722 55.845 -2.78883e-07 
273 1 0.107235 0.142825 0.210119 55.845 -4.12928e-07 
357 1 0.000175679 0.178586 0.125541 55.845 3.84287e-07 
358 1 -3.28957e-05 0.214232 0.167647 55.845 6.43449e-08 
359 1 0.0357355 0.214201 0.125505 55.845 9.68518e-08 
360 1 0.035781 0.249943 0.167593 55.845 1.1457e-07 
362 1 2.65155e-05 0.142907 0.16756 55.845 1.98132e-08 
363 1 0.0358086 0.14292 0.125625 55.845 2.18249e-07 
364 1 0.035737 0.178597 0.167833 55.845 1.33297e-07 
365 1 0.0714243 0.178621 0.125611 55.845 1.2143e-07 
366 1 0.0714338 0.214314 0.167652 55.845 8.16064e-08 
367 1 0.107229 0.214276 0.125591 55.845 4.90176e-09 
368 1 0.107188 0.250099 0.167414 55.845 8.38972e-08 
374 1 0.0715689 0.142937 0.16794 55.845 1.57253e-07 
375 1 0.107188 0.142851 0.125561 55.845 -2.75374e-08 
376 1 0.107136 0.178509 0.167728 55.845 1.27351e-07 
459 1 0 0.178571 0.0416667 55.845 1.29614e-06 
460 1 2.31358e-05 0.214271 0.0837949 55.845 -6.97681e-07 
461 1 0.0357143 0.214286 0.0416667 55.845 9.8922e-07 
462 1 0.0356765 0.249974 0.0838136 55.845 -9.30181e-07 
464 1 -4.13545e-05 0.142884 0.0839659 55.845 -6.26367e-07 
465 1 0.0357143 0.142857 0.0416667 55.845 1.17514e-06 
466 1 0.035839 0.178485 0.0839262 55.845 -6.80601e-07 
467 1 0.0714286 0.178571 0.0416667 55.845 9.4668e-07 
468 1 0.0714883 0.214305 0.0839179 55.845 -8.87168e-07 
469 1 0.107143 0.214286 0.0416667 55.845 8.89723e-07 
470 1 0.107142 0.249875 0.0838937 55.845 -7.25567e-07 
476 1 0.0714499 0.142902 0.0839145 55.845 -7.55647e-07 
477 1 0.107143 0.142857 0.0416667 55.845 8.98837e-07 
478 1 0.107073 0.178484 0.0837739 55.845 -9.16421e-07 
561 1 0 0.214286 0 55.845 -2.31966e-07 
562 1 0.0357143 0.25 0 55.845 -5.02689e-07 
563 1 0 0.142857 0 55.845 -1.75097e-07 
564 1 0.0357143 0.178571 0 55.845 -1.57082e-07 
565 1 0.0714286 0.214286 0 55.845 -3.95018e-07 
566 1 0.107143 0.25 0 55.845 -1.79984e-07 
569 1 0.0714286 0.142857 0 55.845 -2.13145e-07 
570 1 0.107143 0.178571 0 55.845 -4.02525e-07 
275 1 0.142943 0.178516 0.209919 55.845 -2.27336e-07 
277 1 0.178497 0.214395 0.209738 55.845 -2.83793e-07 
287 1 0.178588 0.142784 0.209824 55.845 -1.82795e-07 
289 1 0.214339 0.178576 0.209642 55.845 -1.54214e-07 
291 1 0.24997 0.214303 0.209718 55.845 -9.98055e-08 
301 1 0.249965 0.142768 0.20988 55.845 -2.37543e-07 
377 1 0.142828 0.178594 0.125557 55.845 -8.46262e-08 
378 1 0.142905 0.214325 0.16756 55.845 1.35833e-07 
379 1 0.178502 0.214258 0.12548 55.845 1.2787e-07 
388 1 0.142874 0.142802 0.167674 55.845 2.16697e-07 
389 1 0.178594 0.142826 0.125551 55.845 4.01114e-08 
390 1 0.178638 0.178563 0.167606 55.845 2.85211e-08 
391 1 0.214178 0.178557 0.125588 55.845 1.49123e-07 
392 1 0.214323 0.214368 0.167651 55.845 -1.90943e-07 
393 1 0.250066 0.21422 0.125453 55.845 2.07347e-07 
402 1 0.214264 0.142933 0.167693 55.845 -4.6602e-09 
403 1 0.249981 0.142843 0.125527 55.845 3.11986e-07 
404 1 0.249929 0.178561 0.167693 55.845 -1.22896e-07 
479 1 0.142857 0.178571 0.0416667 55.845 7.97553e-07 
480 1 0.14282 0.214268 0.0838547 55.845 -9.05389e-07 
481 1 0.178571 0.214286 0.0416667 55.845 1.11767e-06 
490 1 0.142854 0.142854 0.084019 55.845 -1.04166e-06 
491 1 0.178571 0.142857 0.0416667 55.845 8.61145e-07 
492 1 0.178569 0.178529 0.0837136 55.845 -9.24737e-07 
493 1 0.214286 0.178571 0.0416667 55.845 1.10152e-06 
494 1 0.214294 0.214227 0.083696 55.845 -9.79255e-07 
495 1 0.25 0.214286 0.0416667 55.845 1.01104e-06 
504 1 0.21432 0.142776 0.0839867 55.845 -9.58753e-07 
505 1 0.25 0.142857 0.0416667 55.845 1.15521e-06 
506 1 0.249941 0.178552 0.0839072 55.845 -8.76764e-07 
571 1 0.142857 0.214286 0 55.845 -2.09188e-07 
576 1 0.142857 0.142857 0 55.845 -3.61821e-07 
577 1 0.178571 0.178571 0 55.845 -2.31271e-07 
578 1 0.214286 0.214286 0 55.845 -2.15208e-07 
583 1 0.214286 0.142857 0 55.845 -1.71669e-07 
584 1 0.25 0.178571 0 55.845 -6.44996e-08 
303 1 0.285738 0.178531 0.209909 55.845 -2.3972e-07 
305 1 0.321511 0.214357 0.209757 55.845 -1.48264e-07 
315 1 0.321531 0.142831 0.209988 55.845 -2.27224e-07 
317 1 0.357117 0.178475 0.209766 55.845 -1.52762e-07 
405 1 0.285698 0.178536 0.125727 55.845 2.39097e-07 
406 1 0.285753 0.214333 0.167631 55.845 -1.25804e-07 
407 1 0.32149 0.214292 0.125644 55.845 1.68267e-07 
416 1 0.285677 0.142851 0.167742 55.845 -2.99701e-08 
417 1 0.321404 0.142877 0.125619 55.845 1.20581e-07 
418 1 0.321472 0.178499 0.167819 55.845 2.63404e-08 
419 1 0.357132 0.178475 0.125513 55.845 9.55161e-08 
420 1 0.357193 0.214274 0.167689 55.845 -5.85978e-08 
432 1 0.357229 0.142821 0.167642 55.845 7.81466e-08 
507 1 0.285714 0.178571 0.0416667 55.845 1.13107e-06 
508 1 0.285774 0.214199 0.0838973 55.845 -1.01314e-06 
509 1 0.321429 0.214286 0.0416667 55.845 9.96888e-07 
518 1 0.285823 0.142884 0.0839293 55.845 -7.2865e-07 
519 1 0.321429 0.142857 0.0416667 55.845 9.66159e-07 
520 1 0.321429 0.178583 0.0839051 55.845 -8.41873e-07 
521 1 0.357143 0.178571 0.0416667 55.845 8.27607e-07 
522 1 0.357188 0.214298 0.0839983 55.845 -7.60228e-07 
534 1 0.35712 0.142817 0.0837954 55.845 -8.90838e-07 
585 1 0.285714 0.214286 0 55.845 -2.95805e-07 
590 1 0.285714 0.142857 0 55.845 -7.50157e-08 
591 1 0.321429 0.178571 0 55.845 -2.30525e-07 
592 1 0.357143 0.214286 0 55.845 -2.32369e-07 
598 1 0.357143 0.142857 0 55.845 -4.49622e-07 
319 1 0.392883 0.214272 0.210087 55.845 -1.78785e-07 
321 1 0.428597 0.249942 0.209975 55.845 -3.14226e-08 
331 1 0.392821 0.142845 0.209849 55.845 -1.54878e-07 
333 1 0.428489 0.178587 0.209986 55.845 1.87225e-08 
335 1 0.46432 0.214328 0.210025 55.845 -4.66387e-08 
345 1 0.464369 0.142816 0.209805 55.845 -1.85795e-07 
606 1 0.464286 0.178571 0 55.845 -3.23082e-07 
421 1 0.392816 0.214258 0.125623 55.845 2.61559e-07 
422 1 0.392894 0.24997 0.16773 55.845 -8.88409e-08 
423 1 0.428449 0.25007 0.125628 55.845 3.09837e-07 
433 1 0.392899 0.142798 0.125552 55.845 5.51209e-08 
434 1 0.392865 0.178551 0.167745 55.845 -4.69738e-08 
435 1 0.428603 0.178587 0.125664 55.845 2.21421e-07 
436 1 0.428587 0.214303 0.167869 55.845 -1.79917e-07 
437 1 0.464248 0.214257 0.125495 55.845 2.97242e-07 
605 1 0.428571 0.142857 0 55.845 -3.98298e-07 
446 1 0.428654 0.142848 0.167818 55.845 -8.50653e-08 
447 1 0.464278 0.142861 0.125493 55.845 3.72305e-07 
448 1 0.464174 0.178612 0.167478 55.845 -1.55807e-07 
523 1 0.392857 0.214286 0.0416667 55.845 1.06095e-06 
524 1 0.392833 0.249978 0.0838554 55.845 -5.56039e-07 
525 1 0.428571 0.25 0.0416667 55.845 1.09148e-06 
535 1 0.392857 0.142857 0.0416667 55.845 7.73835e-07 
536 1 0.392843 0.178536 0.0840023 55.845 -9.50068e-07 
537 1 0.428571 0.178571 0.0416667 55.845 9.0195e-07 
538 1 0.42843 0.214215 0.0839299 55.845 -8.97268e-07 
539 1 0.464286 0.214286 0.0416667 55.845 1.00129e-06 
548 1 0.428556 0.142824 0.0839379 55.845 -8.55517e-07 
549 1 0.464286 0.142857 0.0416667 55.845 1.16201e-06 
550 1 0.464304 0.178435 0.0837841 55.845 -7.45811e-07 
593 1 0.392857 0.25 0 55.845 -1.15271e-07 
599 1 0.392857 0.178571 0 55.845 -4.88734e-07 
600 1 0.428571 0.214286 0 55.845 -4.09117e-07 
3 1 7.75223e-05 0.107234 0.463812 55.845 -4.69927e-07 
7 1 -1.81559e-05 0.0357694 0.463952 55.845 -3.36162e-07 
8 1 0.0356938 0.0714474 0.463772 55.845 -2.75944e-07 
9 1 0.0714189 0.10722 0.463857 55.845 -1.06601e-07 
13 1 0.0356842 -3.92136e-05 0.463907 55.845 -2.35658e-07 
14 1 0.07138 0.0356048 0.463766 55.845 -1.95581e-07 
15 1 0.107137 0.0714313 0.463965 55.845 4.17641e-08 
20 1 0.107055 3.20015e-05 0.463966 55.845 -3.50377e-07 
55 1 -2.62959e-05 0.107084 0.380089 55.845 -1.12323e-07 
63 1 -7.48913e-05 0.0357306 0.379997 55.845 -1.49441e-07 
64 1 -2.48614e-05 0.0714623 0.421036 55.845 2.76787e-07 
65 1 0.0357238 0.0714292 0.380007 55.845 -4.61588e-08 
66 1 0.035656 0.107145 0.421268 55.845 3.17928e-07 
67 1 0.0714085 0.107205 0.380266 55.845 -1.34964e-07 
74 1 3.47469e-07 0.000135597 0.421273 55.845 3.33174e-07 
75 1 0.0357135 -2.54831e-05 0.379837 55.845 -1.82469e-07 
76 1 0.0356333 0.0355858 0.421269 55.845 2.30893e-07 
77 1 0.0714305 0.0356612 0.3802 55.845 -9.93607e-08 
78 1 0.0713781 0.0714182 0.421499 55.845 1.53095e-07 
79 1 0.107091 0.0714371 0.380488 55.845 -6.2476e-08 
80 1 0.107105 0.107262 0.421592 55.845 2.14977e-07 
88 1 0.0713429 -7.28914e-05 0.421367 55.845 2.4686e-07 
89 1 0.107165 -0.000103118 0.380146 55.845 2.31586e-08 
90 1 0.107183 0.0356136 0.421492 55.845 2.1264e-07 
157 1 8.47509e-06 0.107168 0.29547 55.845 -3.39526e-07 
165 1 9.81881e-05 0.0356915 0.295578 55.845 -2.31758e-07 
166 1 5.42755e-05 0.0713885 0.338509 55.845 5.62776e-07 
167 1 0.0358122 0.0714419 0.295561 55.845 -3.89744e-07 
168 1 0.0356561 0.107156 0.338692 55.845 3.44185e-07 
169 1 0.07144 0.107234 0.295754 55.845 -6.92978e-07 
176 1 3.55418e-05 0.000105524 0.338529 55.845 -9.56709e-09 
177 1 0.0356926 4.84536e-06 0.295548 55.845 -3.8714e-07 
178 1 0.0357584 0.0356266 0.338426 55.845 3.58409e-07 
179 1 0.0714293 0.0357419 0.295545 55.845 -4.42892e-07 
180 1 0.0714483 0.0713871 0.338622 55.845 1.75383e-07 
181 1 0.107128 0.0713756 0.295642 55.845 -6.67718e-07 
182 1 0.1071 0.107111 0.338793 55.845 8.84315e-08 
190 1 0.0714742 -3.07603e-05 0.338475 55.845 2.45083e-07 
191 1 0.107279 -5.99588e-05 0.295755 55.845 -1.5758e-07 
192 1 0.107076 0.0357562 0.338623 55.845 1.35873e-07 
268 1 -2.0917e-05 0.0714509 0.252398 55.845 9.67817e-07 
270 1 0.0356998 0.10713 0.252364 55.845 8.11289e-07 
278 1 -4.60274e-05 2.98952e-05 0.252291 55.845 6.22942e-07 
280 1 0.0356816 0.0357597 0.252273 55.845 8.88308e-07 
282 1 0.0715179 0.0715213 0.252432 55.845 7.85425e-07 
284 1 0.107151 0.107079 0.252467 55.845 7.1579e-07 
292 1 0.0714425 -2.95593e-05 0.252252 55.845 7.49016e-07 
294 1 0.107173 0.0357045 0.252497 55.845 6.44631e-07 
16 1 0.142911 0.107242 0.464 55.845 -1.13929e-07 
21 1 0.142886 0.03562 0.463875 55.845 -1.8089e-07 
22 1 0.178642 0.0714052 0.46405 55.845 -8.55934e-08 
23 1 0.214206 0.107126 0.46413 55.845 -1.29221e-07 
27 1 0.178611 -4.718e-05 0.463982 55.845 -3.75355e-07 
28 1 0.214364 0.0356889 0.464019 55.845 -3.86052e-07 
29 1 0.250113 0.0714006 0.463999 55.845 -1.8548e-07 
81 1 0.142787 0.107261 0.380364 55.845 -2.71969e-08 
91 1 0.142823 0.0357387 0.380454 55.845 -1.02241e-07 
92 1 0.142882 0.0714566 0.421467 55.845 8.07023e-08 
93 1 0.178607 0.0714883 0.380272 55.845 -2.12074e-08 
94 1 0.178532 0.107192 0.421508 55.845 1.01936e-07 
95 1 0.214301 0.107178 0.380249 55.845 1.52897e-08 
102 1 0.142891 -4.49344e-05 0.421543 55.845 3.36011e-07 
103 1 0.17864 -2.45572e-05 0.380194 55.845 8.61407e-09 
104 1 0.178747 0.035755 0.421529 55.845 2.16913e-07 
105 1 0.214243 0.0357043 0.380233 55.845 7.88179e-08 
106 1 0.214261 0.0714868 0.421679 55.845 2.28313e-07 
107 1 0.249961 0.0713591 0.380451 55.845 9.76786e-08 
108 1 0.250062 0.107119 0.42138 55.845 1.20108e-07 
118 1 0.214337 3.19572e-05 0.421544 55.845 3.14362e-07 
120 1 0.249977 0.0356635 0.421626 55.845 1.11469e-07 
183 1 0.1428 0.107086 0.295636 55.845 -4.63455e-07 
193 1 0.142868 0.0357887 0.295866 55.845 -4.23281e-07 
194 1 0.142789 0.0715939 0.338759 55.845 -9.06445e-10 
195 1 0.178554 0.0714987 0.295774 55.845 -2.73036e-07 
196 1 0.178532 0.107306 0.338615 55.845 1.44852e-07 
197 1 0.214251 0.10715 0.295634 55.845 -7.63586e-08 
204 1 0.142809 6.03775e-05 0.338776 55.845 2.7886e-07 
205 1 0.178552 8.87206e-07 0.295818 55.845 -2.33784e-07 
206 1 0.178516 0.0357201 0.338734 55.845 1.44747e-07 
207 1 0.214276 0.0357579 0.295789 55.845 -1.13158e-07 
208 1 0.214318 0.0715302 0.33873 55.845 1.59581e-07 
209 1 0.250053 0.0714246 0.295719 55.845 -7.01494e-08 
210 1 0.250028 0.107102 0.338522 55.845 1.18348e-07 
220 1 0.214248 -1.69008e-05 0.338729 55.845 1.84937e-07 
222 1 0.250016 0.0356436 0.338631 55.845 2.84734e-07 
296 1 0.142883 0.0714449 0.25249 55.845 6.22896e-07 
298 1 0.178538 0.107067 0.252459 55.845 8.48676e-07 
306 1 0.142938 8.44123e-05 0.252458 55.845 6.93561e-07 
308 1 0.178511 0.0357086 0.25257 55.845 6.14984e-07 
310 1 0.214284 0.0714299 0.252429 55.845 7.22427e-07 
312 1 0.249972 0.107081 0.252524 55.845 6.51706e-07 
322 1 0.214148 4.07408e-05 0.252514 55.845 4.52584e-07 
324 1 0.250033 0.0356555 0.252662 55.845 7.79609e-07 
30 1 0.285741 0.107191 0.463981 55.845 -1.10166e-07 
35 1 0.250069 -5.45806e-05 0.46405 55.845 -3.91296e-07 
36 1 0.285725 0.0356641 0.464031 55.845 -2.78148e-07 
37 1 0.321447 0.0713358 0.463969 55.845 -1.31608e-07 
38 1 0.357174 0.107151 0.463874 55.845 -2.01161e-07 
42 1 0.321484 -5.37945e-06 0.463931 55.845 -2.7678e-07 
43 1 0.357127 0.0356615 0.46385 55.845 -2.64981e-08 
109 1 0.285705 0.107155 0.380059 55.845 2.2968e-08 
119 1 0.250042 -6.63289e-05 0.380164 55.845 -9.34371e-08 
121 1 0.285737 0.0356587 0.380251 55.845 1.06417e-07 
122 1 0.285731 0.0713988 0.421488 55.845 1.64803e-07 
123 1 0.321449 0.0714444 0.380162 55.845 1.09687e-07 
124 1 0.321522 0.107132 0.421589 55.845 7.30485e-08 
125 1 0.357043 0.107098 0.380038 55.845 1.20335e-07 
133 1 0.321366 -6.07083e-05 0.380081 55.845 -5.42593e-09 
134 1 0.321347 0.0356362 0.421273 55.845 9.98371e-08 
135 1 0.357113 0.0356578 0.380101 55.845 -6.88752e-08 
136 1 0.357153 0.0713882 0.421349 55.845 1.26844e-08 
211 1 0.28576 0.107167 0.295461 55.845 -2.95454e-07 
221 1 0.249981 6.88079e-06 0.295734 55.845 -2.95573e-07 
223 1 0.285668 0.0357885 0.295768 55.845 -1.5691e-07 
224 1 0.285783 0.0713484 0.338773 55.845 2.30409e-07 
225 1 0.321412 0.0714077 0.295605 55.845 -2.96182e-07 
226 1 0.32144 0.107043 0.338541 55.845 8.53144e-08 
227 1 0.357075 0.107051 0.295612 55.845 -3.008e-07 
235 1 0.321416 -0.000139155 0.295525 55.845 -3.15416e-07 
236 1 0.321397 0.035641 0.338487 55.845 1.77058e-07 
237 1 0.357098 0.0356719 0.295619 55.845 -5.29533e-07 
238 1 0.357068 0.0713069 0.338463 55.845 1.06176e-07 
326 1 0.285659 0.0713927 0.252502 55.845 8.13206e-07 
328 1 0.321387 0.107116 0.252378 55.845 6.73458e-07 
338 1 0.321392 0.0356089 0.252405 55.845 6.56917e-07 
340 1 0.35713 0.0713727 0.252426 55.845 6.77602e-07 
44 1 0.392834 0.0713491 0.463951 55.845 -6.83763e-08 
45 1 0.428548 0.107092 0.463824 55.845 -1.77273e-07 
47 1 0.39281 2.74137e-05 0.463824 55.845 -2.42722e-07 
48 1 0.428555 0.0357635 0.464 55.845 -1.61195e-07 
49 1 0.464346 0.0713632 0.463988 55.845 -2.13004e-07 
50 1 0.464342 0.000116105 0.464189 55.845 -1.07911e-07 
137 1 0.392814 0.0715969 0.380005 55.845 -2.89263e-09 
138 1 0.392813 0.107156 0.421149 55.845 6.1786e-08 
139 1 0.428583 0.107075 0.38023 55.845 7.43577e-08 
144 1 0.392837 0.000104989 0.380106 55.845 -2.98218e-08 
145 1 0.392799 0.0357103 0.421422 55.845 1.69724e-07 
146 1 0.428615 0.0357584 0.380132 55.845 -1.47819e-08 
147 1 0.428559 0.07134 0.421318 55.845 1.21982e-07 
148 1 0.464326 0.0714021 0.38004 55.845 -6.74637e-08 
149 1 0.464354 0.107101 0.421401 55.845 1.51389e-07 
150 1 0.428485 4.27831e-05 0.421566 55.845 1.68167e-07 
151 1 0.464206 5.21983e-05 0.380108 55.845 -1.25452e-07 
152 1 0.464219 0.0356619 0.421354 55.845 1.52268e-07 
239 1 0.392818 0.0713634 0.295548 55.845 -5.70998e-07 
240 1 0.392827 0.107194 0.338284 55.845 3.48303e-08 
241 1 0.428652 0.107121 0.29559 55.845 -2.96851e-07 
246 1 0.392853 7.29283e-05 0.295564 55.845 -2.02023e-07 
247 1 0.392964 0.035752 0.338612 55.845 -7.84627e-08 
248 1 0.428582 0.0357502 0.295558 55.845 -3.96439e-07 
249 1 0.428571 0.071553 0.338499 55.845 -1.08652e-08 
250 1 0.464379 0.0715137 0.295613 55.845 -1.86871e-07 
251 1 0.464319 0.107221 0.338497 55.845 -6.5244e-08 
252 1 0.428512 2.62118e-05 0.338465 55.845 1.47755e-07 
253 1 0.464165 7.41591e-05 0.295753 55.845 -1.72128e-07 
254 1 0.464261 0.0357903 0.338545 55.845 8.57104e-08 
342 1 0.392813 0.107137 0.252411 55.845 5.2973e-07 
349 1 0.392797 0.0356521 0.252329 55.845 5.60783e-07 
351 1 0.428624 0.0713676 0.252485 55.845 3.91315e-07 
353 1 0.464237 0.107172 0.252393 55.845 3.83274e-07 
354 1 0.428528 -6.40119e-05 0.252293 55.845 6.50117e-07 
356 1 0.464318 0.0358152 0.252434 55.845 5.28241e-07 
1 1 -3.52016e-05 0.178593 0.463888 55.845 -3.75899e-07 
2 1 0.0357291 0.214329 0.463803 55.845 -4.27667e-07 
4 1 0.0356849 0.142902 0.463853 55.845 -4.13331e-07 
5 1 0.071449 0.178643 0.464065 55.845 -3.41919e-07 
6 1 0.107137 0.214331 0.463943 55.845 -3.63872e-07 
10 1 0.107239 0.142929 0.463827 55.845 -2.96346e-07 
51 1 1.42866e-05 0.178533 0.38026 55.845 -2.7496e-07 
52 1 2.83437e-05 0.214379 0.421405 55.845 3.83089e-07 
53 1 0.0357008 0.214354 0.380227 55.845 -1.95491e-07 
54 1 0.035612 0.250058 0.421206 55.845 2.63145e-07 
56 1 3.53953e-05 0.142884 0.421198 55.845 4.80091e-07 
57 1 0.035769 0.142878 0.380014 55.845 -2.47448e-07 
58 1 0.0357803 0.178596 0.421302 55.845 3.71336e-07 
59 1 0.0714534 0.178658 0.380191 55.845 -1.68987e-07 
60 1 0.0714294 0.214443 0.421327 55.845 3.61706e-07 
61 1 0.107181 0.214294 0.38013 55.845 -1.0042e-07 
62 1 0.107092 0.250056 0.421224 55.845 2.76156e-07 
68 1 0.0714992 0.142999 0.421372 55.845 2.71453e-07 
69 1 0.107176 0.142893 0.380216 55.845 -3.91684e-08 
70 1 0.107208 0.178729 0.421398 55.845 3.18836e-07 
153 1 5.55688e-05 0.178607 0.295654 55.845 -7.29679e-07 
154 1 -7.3454e-06 0.214295 0.33861 55.845 2.08053e-07 
155 1 0.0357408 0.214298 0.295525 55.845 -4.39621e-07 
156 1 0.0357967 0.250047 0.338447 55.845 3.31788e-07 
158 1 5.53268e-06 0.142769 0.338526 55.845 2.61525e-07 
159 1 0.0356603 0.142779 0.295531 55.845 -6.55714e-07 
160 1 0.0357567 0.178591 0.338639 55.845 1.33519e-07 
161 1 0.0713886 0.17863 0.295647 55.845 -4.57621e-07 
162 1 0.0715469 0.214421 0.338518 55.845 3.33899e-07 
163 1 0.107198 0.214353 0.295692 55.845 -3.5118e-07 
164 1 0.10719 0.250004 0.338468 55.845 5.94906e-08 
170 1 0.0714724 0.142951 0.338487 55.845 3.26072e-07 
171 1 0.107184 0.142839 0.295648 55.845 -3.77761e-07 
172 1 0.10718 0.178602 0.338496 55.845 3.59587e-07 
256 1 -1.07741e-05 0.214197 0.252453 55.845 5.40489e-07 
258 1 0.0357115 0.249967 0.252342 55.845 8.41241e-07 
260 1 2.00279e-05 0.142823 0.2523 55.845 5.8953e-07 
262 1 0.0357823 0.178526 0.252557 55.845 6.17242e-07 
264 1 0.0714562 0.214352 0.252409 55.845 8.08384e-07 
266 1 0.107143 0.249985 0.252224 55.845 5.9845e-07 
272 1 0.0714573 0.142806 0.252545 55.845 8.32249e-07 
274 1 0.10718 0.178685 0.252636 55.845 1.0028e-06 
11 1 0.142864 0.178603 0.46402 55.845 -3.91621e-07 
12 1 0.178564 0.214346 0.463916 55.845 -3.3398e-07 
17 1 0.178475 0.142868 0.464102 55.845 -1.20486e-07 
18 1 0.214193 0.178456 0.463791 55.845 -2.39453e-07 
19 1 0.250032 0.214279 0.463768 55.845 -3.05211e-07 
24 1 0.249914 0.142854 0.464041 55.845 4.73879e-09 
71 1 0.14297 0.178503 0.380145 55.845 -1.48431e-07 
72 1 0.142864 0.214308 0.421259 55.845 3.16579e-07 
73 1 0.178524 0.214261 0.38011 55.845 -2.22709e-07 
82 1 0.14294 0.142805 0.421428 55.845 2.05955e-07 
83 1 0.178663 0.142972 0.380145 55.845 -1.39435e-07 
84 1 0.178611 0.178652 0.421471 55.845 3.4304e-07 
85 1 0.214345 0.178625 0.38015 55.845 -2.90823e-07 
86 1 0.214156 0.214306 0.42119 55.845 3.25233e-07 
87 1 0.250053 0.21422 0.380155 55.845 -2.84447e-07 
96 1 0.214224 0.142805 0.421411 55.845 1.98054e-07 
97 1 0.249949 0.142796 0.379882 55.845 -1.38221e-07 
98 1 0.249944 0.178565 0.421445 55.845 2.78927e-07 
173 1 0.142841 0.178589 0.295642 55.845 -1.67548e-07 
174 1 0.142982 0.214259 0.338514 55.845 1.46686e-07 
175 1 0.178632 0.214266 0.295688 55.845 -4.42802e-07 
184 1 0.142865 0.142922 0.338549 55.845 3.25057e-07 
185 1 0.178645 0.142765 0.295489 55.845 -1.60878e-07 
186 1 0.178607 0.178536 0.338451 55.845 2.0053e-07 
187 1 0.214344 0.178638 0.29546 55.845 -3.68765e-07 
188 1 0.21427 0.214215 0.3385 55.845 7.5846e-08 
189 1 0.250021 0.214283 0.295403 55.845 -2.41715e-07 
198 1 0.214296 0.142863 0.338464 55.845 -4.2764e-08 
199 1 0.250098 0.142813 0.295524 55.845 -3.18836e-07 
200 1 0.250027 0.178595 0.33838 55.845 -1.16742e-07 
276 1 0.142852 0.21434 0.252157 55.845 6.4466e-07 
286 1 0.14291 0.142791 0.252517 55.845 9.18658e-07 
288 1 0.178606 0.178576 0.252318 55.845 6.13669e-07 
290 1 0.214333 0.214246 0.252243 55.845 5.13678e-07 
300 1 0.214353 0.14288 0.252369 55.845 4.8082e-07 
302 1 0.249976 0.178625 0.2523 55.845 4.08995e-07 
25 1 0.285699 0.178535 0.463868 55.845 -1.15716e-07 
26 1 0.321388 0.214284 0.463803 55.845 -3.39808e-07 
31 1 0.321457 0.143005 0.463783 55.845 -2.01385e-07 
32 1 0.357214 0.178619 0.463855 55.845 -2.95543e-07 
99 1 0.285672 0.178567 0.380026 55.845 -1.75533e-07 
100 1 0.28569 0.214293 0.421187 55.845 2.27823e-07 
101 1 0.321386 0.214372 0.379992 55.845 -1.041e-07 
110 1 0.285721 0.142904 0.42134 55.845 7.07058e-08 
111 1 0.321454 0.142898 0.380171 55.845 -1.26659e-08 
112 1 0.321418 0.178685 0.421283 55.845 2.18663e-07 
113 1 0.357198 0.178669 0.380099 55.845 5.82204e-08 
114 1 0.357063 0.214238 0.421157 55.845 2.26419e-08 
126 1 0.357115 0.142888 0.421374 55.845 1.17269e-07 
201 1 0.285641 0.178636 0.29552 55.845 -4.14196e-07 
202 1 0.285752 0.214302 0.338585 55.845 1.00716e-07 
203 1 0.321378 0.214353 0.29558 55.845 -2.34639e-07 
212 1 0.285672 0.142815 0.338635 55.845 -3.70742e-08 
213 1 0.321373 0.142864 0.295683 55.845 -2.32901e-07 
214 1 0.321386 0.178491 0.338595 55.845 6.93683e-08 
215 1 0.357091 0.178523 0.295663 55.845 -3.46226e-08 