ITEM: TIMESTEP
1200
ITEM: NUMBER OF ATOMS
5880
ITEM: BOX BOUNDS pp pp ff
-27.9214 27.9214
-27.9214 27.9214
0 34.092
ITEM: ATOMS id type xs ys zs mass q 
259 1 -8.50292e-05 0.107096 0.210681 55.845 6.76571e-07 
267 1 -2.37736e-06 0.0357916 0.210743 55.845 5.14849e-07 
269 1 0.0356841 0.0714432 0.210705 55.845 3.08194e-07 
271 1 0.0714404 0.107111 0.210806 55.845 6.35798e-07 
279 1 0.0356823 -5.19072e-05 0.210869 55.845 6.6443e-07 
281 1 0.0715028 0.0356843 0.210756 55.845 2.38058e-08 
283 1 0.107182 0.0713796 0.2108 55.845 4.8595e-08 
293 1 0.107185 -6.86388e-05 0.210784 55.845 3.8488e-07 
361 1 -4.333e-05 0.107156 0.126928 55.845 -1.03321e-07 
369 1 2.41377e-05 0.0356958 0.126891 55.845 4.67922e-07 
370 1 -8.37065e-05 0.0713851 0.169067 55.845 -6.73162e-08 
371 1 0.0357276 0.0713775 0.127113 55.845 1.42205e-07 
372 1 0.0356277 0.10716 0.169166 55.845 -1.80138e-07 
373 1 0.0714689 0.107176 0.127075 55.845 2.89981e-07 
380 1 2.33441e-05 4.43863e-05 0.169148 55.845 -3.44143e-07 
381 1 0.0357089 8.51742e-05 0.126965 55.845 1.11772e-07 
382 1 0.0357935 0.0356742 0.169228 55.845 -4.75967e-08 
383 1 0.0714139 0.0357632 0.126979 55.845 2.30246e-07 
384 1 0.0714734 0.071443 0.16927 55.845 7.29603e-08 
385 1 0.107141 0.0713902 0.126977 55.845 3.98328e-07 
386 1 0.107113 0.107163 0.169189 55.845 4.86621e-08 
394 1 0.0714767 7.62264e-05 0.169286 55.845 -3.67835e-07 
395 1 0.107168 1.80973e-05 0.127023 55.845 -9.36712e-08 
396 1 0.107163 0.0357067 0.169215 55.845 -1.49518e-07 
463 1 0 0.107143 0.0416667 55.845 -1.10736e-07 
471 1 0 0.0357143 0.0416667 55.845 1.02405e-07 
472 1 -4.13558e-05 0.0713811 0.0841994 55.845 1.76989e-07 
473 1 0.0357143 0.0714286 0.0416667 55.845 -4.147e-07 
474 1 0.0356959 0.107135 0.0842333 55.845 1.85064e-07 
475 1 0.0714286 0.107143 0.0416667 55.845 -3.51278e-07 
482 1 3.37375e-05 -5.09769e-06 0.0841325 55.845 -1.97988e-07 
483 1 0.0357143 0 0.0416667 55.845 2.09785e-07 
484 1 0.0357057 0.0357216 0.084088 55.845 1.87033e-07 
485 1 0.0714286 0.0357143 0.0416667 55.845 2.32834e-08 
486 1 0.071417 0.0714331 0.0842501 55.845 4.12356e-07 
487 1 0.107143 0.0714286 0.0416667 55.845 -3.04565e-07 
488 1 0.107127 0.107211 0.0841396 55.845 -2.07256e-08 
496 1 0.0714339 1.7238e-05 0.0841587 55.845 3.75897e-07 
497 1 0.107143 0 0.0416667 55.845 2.20172e-07 
498 1 0.107155 0.0356821 0.0842485 55.845 8.14192e-08 
567 1 0 0.0714286 0 55.845 -2.88845e-07 
568 1 0.0357143 0.107143 0 55.845 -7.68511e-09 
572 1 0 0 0 55.845 6.31561e-08 
573 1 0.0357143 0.0357143 0 55.845 -2.22462e-07 
574 1 0.0714286 0.0714286 0 55.845 -2.10178e-07 
575 1 0.107143 0.107143 0 55.845 2.52886e-07 
579 1 0.0714286 0 0 55.845 2.53224e-07 
580 1 0.107143 0.0357143 0 55.845 5.7762e-08 
285 1 0.142887 0.107114 0.210689 55.845 5.15012e-07 
295 1 0.14285 0.0357752 0.210777 55.845 3.80748e-07 
297 1 0.178584 0.0713991 0.210698 55.845 -9.48657e-08 
299 1 0.214289 0.107139 0.210666 55.845 6.76406e-08 
307 1 0.178555 4.85813e-05 0.210593 55.845 9.00671e-07 
309 1 0.214282 0.0357101 0.210713 55.845 1.92811e-07 
311 1 0.250028 0.0713976 0.210721 55.845 -2.77698e-07 
387 1 0.14285 0.107084 0.127055 55.845 8.45989e-08 
397 1 0.142852 0.0356662 0.126995 55.845 8.93405e-08 
398 1 0.142924 0.0714466 0.169186 55.845 6.16042e-08 
399 1 0.178593 0.0713616 0.126947 55.845 -1.74915e-08 
400 1 0.178571 0.107141 0.169219 55.845 3.36545e-07 
401 1 0.214262 0.107157 0.126996 55.845 -7.73655e-07 
408 1 0.142817 -1.34064e-05 0.169209 55.845 -8.55273e-07 
409 1 0.178549 -5.60599e-05 0.126963 55.845 3.60466e-07 
410 1 0.178553 0.0357721 0.169263 55.845 -2.83366e-07 
411 1 0.214288 0.0357247 0.127024 55.845 1.15113e-07 
412 1 0.21433 0.0714154 0.1692 55.845 2.27674e-07 
413 1 0.25003 0.0714352 0.126998 55.845 -2.12822e-07 
414 1 0.249993 0.107144 0.169178 55.845 -8.97682e-08 
424 1 0.214242 -4.61673e-05 0.169175 55.845 -8.42161e-07 
426 1 0.250061 0.0357054 0.169152 55.845 -2.50162e-07 
489 1 0.142857 0.107143 0.0416667 55.845 -2.18912e-07 
499 1 0.142857 0.0357143 0.0416667 55.845 2.762e-08 
500 1 0.142858 0.0714366 0.0842549 55.845 -2.81679e-08 
501 1 0.178571 0.0714286 0.0416667 55.845 -9.54321e-08 
502 1 0.17852 0.107158 0.0841932 55.845 -2.22136e-07 
503 1 0.214286 0.107143 0.0416667 55.845 1.89328e-08 
510 1 0.14282 -2.8068e-05 0.0842026 55.845 -2.06074e-07 
511 1 0.178571 0 0.0416667 55.845 2.61897e-07 
512 1 0.178624 0.0356969 0.0842827 55.845 -3.68663e-07 
513 1 0.214286 0.0357143 0.0416667 55.845 3.50569e-07 
514 1 0.214278 0.0714381 0.0842947 55.845 3.68091e-07 
515 1 0.25 0.0714286 0.0416667 55.845 8.46251e-08 
516 1 0.250032 0.107179 0.0842029 55.845 5.28625e-07 
526 1 0.214309 -4.01825e-05 0.0841617 55.845 -1.08697e-07 
528 1 0.250027 0.0357206 0.0841795 55.845 4.10266e-08 
581 1 0.142857 0.0714286 0 55.845 1.47069e-07 
582 1 0.178571 0.107143 0 55.845 4.69081e-07 
586 1 0.142857 0 0 55.845 3.00232e-07 
587 1 0.178571 0.0357143 0 55.845 1.49817e-07 
588 1 0.214286 0.0714286 0 55.845 2.28233e-08 
589 1 0.25 0.107143 0 55.845 3.69093e-07 
594 1 0.214286 0 0 55.845 6.56518e-08 
595 1 0.25 0.0357143 0 55.845 -6.66255e-08 
313 1 0.285752 0.107127 0.210708 55.845 4.52827e-07 
323 1 0.249946 -2.45071e-05 0.21074 55.845 5.15751e-07 
325 1 0.285739 0.0356504 0.210833 55.845 3.20497e-07 
327 1 0.321413 0.0713746 0.210602 55.845 5.71215e-07 
329 1 0.357132 0.107048 0.21072 55.845 4.08033e-07 
337 1 0.321523 2.42988e-05 0.210764 55.845 6.65983e-07 
339 1 0.357185 0.0357081 0.210828 55.845 7.30895e-07 
415 1 0.285777 0.107103 0.126997 55.845 -1.67898e-07 
425 1 0.250001 -1.99922e-06 0.12695 55.845 4.52127e-07 
427 1 0.285761 0.0357029 0.127111 55.845 2.61913e-07 
428 1 0.285702 0.0714011 0.169286 55.845 -1.31471e-07 
429 1 0.321389 0.0714498 0.127047 55.845 3.53794e-07 
430 1 0.321431 0.107085 0.169208 55.845 -2.9821e-07 
431 1 0.357146 0.107121 0.12703 55.845 1.18604e-07 
439 1 0.321476 5.45873e-05 0.127042 55.845 3.30127e-07 
440 1 0.321449 0.0357113 0.169233 55.845 -2.5423e-07 
441 1 0.35725 0.0356468 0.127008 55.845 6.69492e-07 
442 1 0.357224 0.0713191 0.169104 55.845 -2.36974e-08 
517 1 0.285714 0.107143 0.0416667 55.845 2.14274e-07 
527 1 0.25 0 0.0416667 55.845 3.01599e-07 
529 1 0.285714 0.0357143 0.0416667 55.845 1.91829e-07 
530 1 0.285698 0.0714003 0.0842083 55.845 2.40189e-07 
531 1 0.321429 0.0714286 0.0416667 55.845 -2.03974e-07 
532 1 0.321391 0.107131 0.0843113 55.845 1.00225e-07 
533 1 0.357143 0.107143 0.0416667 55.845 -5.14249e-07 
603 1 0.357143 0.0714286 0 55.845 -2.27491e-07 
541 1 0.321429 0 0.0416667 55.845 -1.41536e-08 
542 1 0.32142 0.0356821 0.0842237 55.845 -2.15472e-07 
543 1 0.357143 0.0357143 0.0416667 55.845 3.76425e-08 
544 1 0.357144 0.0713793 0.0842409 55.845 1.03883e-08 
602 1 0.321429 0.0357143 0 55.845 -1.75669e-07 
596 1 0.285714 0.0714286 0 55.845 -5.27353e-08 
597 1 0.321429 0.107143 0 55.845 -3.208e-08 
612 1 0.464286 0.0357143 0 55.845 1.67793e-07 
611 1 0.428571 0 0 55.845 1.08817e-07 
610 1 0.464286 0.107143 0 55.845 -2.85817e-07 
609 1 0.428571 0.0714286 0 55.845 2.67493e-08 
608 1 0.392857 0.0357143 0 55.845 -1.56897e-07 
341 1 0.392865 0.0714045 0.21069 55.845 8.69718e-07 
343 1 0.428471 0.107109 0.21078 55.845 4.91033e-07 
348 1 0.392835 -1.44725e-05 0.210733 55.845 4.15562e-07 
350 1 0.4286 0.0357229 0.210803 55.845 6.73911e-07 
352 1 0.464314 0.071388 0.210816 55.845 5.98735e-07 
355 1 0.464243 5.22809e-06 0.210785 55.845 -1.39401e-07 
443 1 0.39292 0.0714378 0.126969 55.845 5.03635e-07 
444 1 0.392895 0.107135 0.16914 55.845 -1.97498e-08 
445 1 0.428602 0.10708 0.126938 55.845 1.4523e-07 
604 1 0.392857 0.107143 0 55.845 -2.00991e-07 
450 1 0.392836 1.72555e-05 0.12704 55.845 3.99968e-07 
451 1 0.392875 0.0356829 0.169216 55.845 -4.70559e-07 
452 1 0.428563 0.035715 0.127076 55.845 2.83214e-07 
453 1 0.428584 0.0714574 0.169287 55.845 -4.15306e-07 
454 1 0.464207 0.0714284 0.126994 55.845 -1.78901e-07 
455 1 0.464245 0.107132 0.169331 55.845 -3.43499e-07 
456 1 0.428627 5.3718e-06 0.169247 55.845 -4.89288e-07 
457 1 0.464235 3.92543e-06 0.127057 55.845 -2.62621e-07 
458 1 0.464335 0.0357298 0.169261 55.845 -5.19446e-07 
545 1 0.392857 0.0714286 0.0416667 55.845 -2.5994e-07 
546 1 0.392787 0.107159 0.0842156 55.845 1.70974e-07 
547 1 0.428571 0.107143 0.0416667 55.845 -2.87775e-07 
552 1 0.392857 0 0.0416667 55.845 4.67592e-08 
553 1 0.392838 0.0356896 0.084195 55.845 -2.24851e-07 
554 1 0.428571 0.0357143 0.0416667 55.845 1.50707e-07 
555 1 0.42852 0.0714601 0.0841124 55.845 -1.18017e-07 
556 1 0.464286 0.0714286 0.0416667 55.845 8.65289e-08 
557 1 0.464291 0.107112 0.0841669 55.845 2.20776e-07 
558 1 0.428596 2.82551e-05 0.084266 55.845 1.19944e-07 
559 1 0.464286 0 0.0416667 55.845 1.78926e-07 
560 1 0.464286 0.0357039 0.0841957 55.845 1.46875e-08 
255 1 3.64011e-06 0.178623 0.210561 55.845 1.08187e-07 
257 1 0.0357664 0.214302 0.210819 55.845 3.76301e-07 
261 1 0.0356492 0.1429 0.210665 55.845 7.30999e-07 
263 1 0.0713454 0.178618 0.210819 55.845 2.94619e-07 
265 1 0.107139 0.21419 0.210699 55.845 4.66812e-07 
273 1 0.107119 0.142874 0.210801 55.845 4.28491e-07 
357 1 4.78724e-05 0.178577 0.127047 55.845 -5.5055e-08 
358 1 2.67227e-06 0.214316 0.169165 55.845 -2.64071e-07 
359 1 0.0357661 0.214303 0.127035 55.845 -4.27864e-08 
360 1 0.0357698 0.249943 0.169221 55.845 -7.66561e-07 
362 1 -2.15515e-05 0.142868 0.16917 55.845 -5.60891e-07 
363 1 0.035687 0.14286 0.127046 55.845 -3.27995e-08 
364 1 0.035691 0.17855 0.169232 55.845 -2.75678e-07 
365 1 0.0714166 0.178564 0.127041 55.845 4.00719e-07 
366 1 0.0715057 0.214214 0.169231 55.845 -4.32318e-07 
367 1 0.107213 0.214279 0.126992 55.845 2.0895e-07 
368 1 0.107184 0.249991 0.169217 55.845 -2.01326e-07 
374 1 0.0713448 0.142853 0.169394 55.845 -3.6704e-07 
375 1 0.1071 0.142797 0.127003 55.845 3.36929e-07 
376 1 0.107179 0.178527 0.169202 55.845 9.67479e-08 
459 1 0 0.178571 0.0416667 55.845 1.40387e-07 
460 1 -1.37763e-05 0.214257 0.0841869 55.845 4.72868e-07 
461 1 0.0357143 0.214286 0.0416667 55.845 5.20374e-09 
462 1 0.0357391 0.249918 0.0842482 55.845 -4.14211e-08 
464 1 3.01232e-05 0.142924 0.0842701 55.845 1.34355e-07 
465 1 0.0357143 0.142857 0.0416667 55.845 -1.19642e-08 
466 1 0.0357678 0.178571 0.0841463 55.845 1.5928e-07 
467 1 0.0714286 0.178571 0.0416667 55.845 7.36358e-08 
468 1 0.0713902 0.214272 0.0841877 55.845 1.88406e-07 
469 1 0.107143 0.214286 0.0416667 55.845 -1.09331e-08 
470 1 0.107181 0.250024 0.08422 55.845 -1.73931e-07 
476 1 0.0714446 0.142867 0.0841677 55.845 -9.88921e-08 
477 1 0.107143 0.142857 0.0416667 55.845 9.3207e-08 
478 1 0.107089 0.178563 0.0841853 55.845 -2.22248e-07 
561 1 0 0.214286 0 55.845 -1.46904e-07 
562 1 0.0357143 0.25 0 55.845 9.27687e-08 
563 1 0 0.142857 0 55.845 -2.93131e-08 
564 1 0.0357143 0.178571 0 55.845 -3.86707e-07 
565 1 0.0714286 0.214286 0 55.845 -3.8139e-07 
566 1 0.107143 0.25 0 55.845 2.73303e-07 
569 1 0.0714286 0.142857 0 55.845 -7.82039e-08 
570 1 0.107143 0.178571 0 55.845 -2.30534e-07 
275 1 0.142893 0.178565 0.210793 55.845 -1.54561e-07 
277 1 0.178587 0.214272 0.21069 55.845 -1.86429e-07 
287 1 0.178583 0.142886 0.210697 55.845 -1.55159e-07 
289 1 0.214249 0.178629 0.210632 55.845 -1.79043e-07 
291 1 0.250053 0.21429 0.21072 55.845 5.27757e-07 
301 1 0.249977 0.142843 0.21061 55.845 2.29058e-07 
377 1 0.142912 0.178594 0.12695 55.845 3.31662e-08 
378 1 0.142855 0.214279 0.169236 55.845 2.2306e-07 
379 1 0.178596 0.214302 0.126852 55.845 -7.44345e-08 
388 1 0.14282 0.142862 0.169239 55.845 1.43454e-08 
389 1 0.178568 0.142839 0.127085 55.845 -4.06477e-07 
390 1 0.178588 0.178613 0.169083 55.845 5.16498e-07 
391 1 0.214299 0.17857 0.126908 55.845 -4.21009e-07 
392 1 0.214314 0.214299 0.169205 55.845 2.01854e-08 
393 1 0.249979 0.214312 0.127054 55.845 -2.80016e-08 
402 1 0.214308 0.14285 0.169189 55.845 3.97957e-08 
403 1 0.249981 0.142832 0.126925 55.845 -3.92898e-07 
404 1 0.249992 0.178535 0.169019 55.845 -2.93475e-07 
479 1 0.142857 0.178571 0.0416667 55.845 1.40619e-07 
480 1 0.142892 0.214326 0.0842198 55.845 3.12933e-07 
481 1 0.178571 0.214286 0.0416667 55.845 -2.26131e-07 
490 1 0.142859 0.142861 0.0842874 55.845 -2.32161e-07 
491 1 0.178571 0.142857 0.0416667 55.845 2.77213e-08 
492 1 0.178552 0.178534 0.0841947 55.845 -3.53831e-08 
493 1 0.214286 0.178571 0.0416667 55.845 3.59055e-08 
494 1 0.214294 0.214385 0.0841483 55.845 6.63517e-07 
495 1 0.25 0.214286 0.0416667 55.845 -2.58036e-07 
504 1 0.214316 0.14281 0.0842961 55.845 1.70582e-07 
505 1 0.25 0.142857 0.0416667 55.845 2.87674e-07 
506 1 0.250032 0.178553 0.0842369 55.845 1.76747e-07 
571 1 0.142857 0.214286 0 55.845 -3.08832e-07 
576 1 0.142857 0.142857 0 55.845 3.3036e-07 
577 1 0.178571 0.178571 0 55.845 4.38088e-09 
578 1 0.214286 0.214286 0 55.845 -2.92796e-07 
583 1 0.214286 0.142857 0 55.845 2.24425e-07 
584 1 0.25 0.178571 0 55.845 -1.21375e-07 
303 1 0.285678 0.178576 0.2108 55.845 4.3888e-07 
305 1 0.321506 0.214272 0.210657 55.845 3.46737e-07 
315 1 0.32143 0.14281 0.210652 55.845 2.8222e-07 
317 1 0.357163 0.178591 0.210675 55.845 5.73987e-08 
405 1 0.285692 0.178549 0.126968 55.845 4.90894e-09 
406 1 0.285739 0.214279 0.169195 55.845 -4.76862e-07 
407 1 0.321443 0.214243 0.127004 55.845 -1.42785e-07 
416 1 0.285726 0.142847 0.169257 55.845 -5.47694e-07 
417 1 0.321483 0.142811 0.127118 55.845 -9.08014e-08 
418 1 0.321376 0.17852 0.169181 55.845 -2.14043e-07 
419 1 0.357127 0.178547 0.127014 55.845 -2.91552e-07 
420 1 0.357125 0.214292 0.169157 55.845 1.67882e-07 
432 1 0.357189 0.142819 0.169277 55.845 -3.54696e-08 
507 1 0.285714 0.178571 0.0416667 55.845 2.78207e-07 
508 1 0.285701 0.214336 0.0842746 55.845 2.37878e-07 
509 1 0.321429 0.214286 0.0416667 55.845 9.67644e-08 
518 1 0.285773 0.142866 0.0842533 55.845 8.48679e-08 
519 1 0.321429 0.142857 0.0416667 55.845 1.54154e-07 
520 1 0.321462 0.178519 0.0841985 55.845 -1.61007e-07 
521 1 0.357143 0.178571 0.0416667 55.845 4.77528e-08 
522 1 0.357166 0.214205 0.0842324 55.845 3.64888e-07 
534 1 0.357144 0.142826 0.0841376 55.845 -1.77079e-07 
585 1 0.285714 0.214286 0 55.845 -1.96407e-07 
590 1 0.285714 0.142857 0 55.845 1.55268e-07 
591 1 0.321429 0.178571 0 55.845 2.04109e-07 
592 1 0.357143 0.214286 0 55.845 3.98433e-07 
598 1 0.357143 0.142857 0 55.845 -5.12991e-09 
319 1 0.392864 0.21429 0.210693 55.845 -2.4199e-07 
321 1 0.428597 0.249939 0.210781 55.845 -3.66841e-07 
331 1 0.392855 0.142772 0.210693 55.845 -3.38231e-08 
333 1 0.428591 0.178556 0.210797 55.845 1.39959e-07 
335 1 0.464344 0.214261 0.210672 55.845 1.71009e-07 
345 1 0.464294 0.142851 0.210796 55.845 -1.22757e-07 
606 1 0.464286 0.178571 0 55.845 -4.95077e-07 
421 1 0.392906 0.214289 0.12706 55.845 -2.72996e-07 
422 1 0.392904 0.249962 0.169195 55.845 1.09263e-07 
423 1 0.428586 0.250039 0.127013 55.845 -7.55185e-08 
433 1 0.392823 0.142882 0.12692 55.845 1.02018e-07 
434 1 0.392824 0.178571 0.169285 55.845 4.25324e-07 
435 1 0.428574 0.178615 0.127014 55.845 1.19861e-07 
436 1 0.428603 0.21427 0.169296 55.845 2.58446e-07 
437 1 0.464328 0.214247 0.127002 55.845 1.14743e-07 
605 1 0.428571 0.142857 0 55.845 -3.54263e-07 
446 1 0.428579 0.142897 0.169093 55.845 2.26748e-07 
447 1 0.464284 0.142785 0.127049 55.845 2.64537e-07 
448 1 0.464267 0.178547 0.169279 55.845 1.5883e-07 
523 1 0.392857 0.214286 0.0416667 55.845 -1.55303e-07 
524 1 0.392847 0.249967 0.084262 55.845 1.47393e-07 
525 1 0.428571 0.25 0.0416667 55.845 1.3352e-07 
535 1 0.392857 0.142857 0.0416667 55.845 -2.68475e-07 
536 1 0.392823 0.178617 0.0842063 55.845 7.62406e-08 
537 1 0.428571 0.178571 0.0416667 55.845 -1.69224e-07 
538 1 0.428643 0.214307 0.0842028 55.845 4.29649e-07 
539 1 0.464286 0.214286 0.0416667 55.845 -3.28564e-08 
548 1 0.428521 0.142801 0.0842722 55.845 1.2597e-07 
549 1 0.464286 0.142857 0.0416667 55.845 3.97056e-08 
550 1 0.464303 0.178552 0.0841685 55.845 9.80596e-08 
593 1 0.392857 0.25 0 55.845 4.66058e-07 
599 1 0.392857 0.178571 0 55.845 6.58389e-08 
600 1 0.428571 0.214286 0 55.845 -6.58254e-08 
3 1 2.4908e-05 0.107134 0.463059 55.845 -1.09656e-07 
7 1 5.27547e-05 0.0356891 0.463007 55.845 -4.6928e-08 
8 1 0.0357462 0.071414 0.463096 55.845 -1.53137e-07 
9 1 0.0714562 0.107161 0.463054 55.845 2.827e-07 
13 1 0.0357566 -2.09786e-05 0.46303 55.845 1.49085e-07 
14 1 0.0714097 0.0357303 0.463086 55.845 -1.94066e-07 
15 1 0.107174 0.07147 0.463132 55.845 1.86932e-07 
20 1 0.107142 2.37172e-05 0.463071 55.845 1.47866e-07 
55 1 3.43795e-05 0.107152 0.379646 55.845 -4.65303e-07 
63 1 1.89128e-05 0.0357384 0.379527 55.845 -1.10066e-08 
64 1 5.42333e-05 0.0714177 0.421517 55.845 5.09513e-07 
65 1 0.0356947 0.0714263 0.379604 55.845 2.60341e-07 
66 1 0.0357108 0.107204 0.421588 55.845 2.16804e-07 
67 1 0.0714016 0.107114 0.379726 55.845 2.51283e-07 
74 1 4.6248e-05 3.10638e-05 0.421522 55.845 8.07754e-08 
75 1 0.0358168 2.93062e-05 0.379595 55.845 -1.06984e-07 
76 1 0.0357443 0.035688 0.42153 55.845 1.19952e-07 
77 1 0.0714359 0.0357507 0.379645 55.845 6.61528e-07 
78 1 0.0714367 0.0713831 0.421598 55.845 -2.45041e-07 
79 1 0.10724 0.0714962 0.379719 55.845 6.40675e-07 
80 1 0.107187 0.107148 0.421596 55.845 -8.13683e-07 
88 1 0.071491 -1.01905e-05 0.421522 55.845 -9.70432e-08 
89 1 0.107216 -4.25592e-05 0.3797 55.845 -5.9903e-08 
90 1 0.107232 0.0357603 0.421586 55.845 -3.96e-07 
157 1 3.41688e-05 0.10717 0.294455 55.845 9.85548e-08 
165 1 8.01998e-05 0.0356821 0.294448 55.845 -9.97771e-09 
166 1 7.25019e-05 0.0714473 0.336927 55.845 -2.10876e-07 
167 1 0.0357348 0.0715041 0.294316 55.845 3.513e-07 
168 1 0.0356911 0.107082 0.337039 55.845 -1.18177e-07 
169 1 0.071433 0.107104 0.294453 55.845 4.80731e-07 
176 1 0.000124735 -1.76219e-05 0.337033 55.845 -3.78664e-07 
177 1 0.035794 2.27901e-05 0.294525 55.845 3.61729e-07 
178 1 0.0357909 0.0357282 0.337044 55.845 -3.24022e-07 
179 1 0.071437 0.0356976 0.294577 55.845 4.62005e-07 
180 1 0.0714993 0.0714291 0.337055 55.845 -3.06413e-07 
181 1 0.107184 0.0714015 0.294586 55.845 5.81693e-07 
182 1 0.107201 0.10718 0.337067 55.845 -2.04588e-07 
190 1 0.0714888 -4.31648e-05 0.337074 55.845 -4.45443e-07 
191 1 0.107187 -3.01399e-05 0.294501 55.845 5.69594e-07 
192 1 0.107192 0.0356652 0.33709 55.845 1.89521e-07 
268 1 3.61342e-05 0.0714754 0.252479 55.845 -4.43474e-07 
270 1 0.0357365 0.107165 0.252233 55.845 -4.49666e-07 
278 1 5.47499e-05 7.21363e-06 0.252428 55.845 -4.43379e-08 
280 1 0.0357348 0.0356916 0.252354 55.845 -7.28581e-07 
282 1 0.0714606 0.071378 0.252447 55.845 -7.54411e-07 
284 1 0.107152 0.107107 0.252392 55.845 -7.98713e-07 
292 1 0.0715102 -3.84559e-05 0.252349 55.845 -1.68411e-07 
294 1 0.107219 0.0356882 0.252422 55.845 -5.58541e-07 
16 1 0.142889 0.107225 0.463094 55.845 5.75161e-07 
21 1 0.142938 0.0357425 0.463173 55.845 -2.41813e-07 
22 1 0.178606 0.0714608 0.463172 55.845 -7.601e-08 
23 1 0.214243 0.107122 0.463104 55.845 1.52434e-07 
27 1 0.178618 2.4014e-05 0.463167 55.845 -3.43032e-07 
28 1 0.214299 0.0357253 0.463133 55.845 -5.92254e-07 
29 1 0.250009 0.0714337 0.463115 55.845 -1.12263e-07 
81 1 0.142871 0.107218 0.379613 55.845 5.23159e-07 
91 1 0.142893 0.0356956 0.379669 55.845 3.02005e-07 
92 1 0.142964 0.0714862 0.421538 55.845 -6.25325e-07 
93 1 0.178597 0.0714326 0.379619 55.845 4.53545e-07 
94 1 0.178583 0.107181 0.421542 55.845 -6.8574e-07 
95 1 0.214236 0.10717 0.379607 55.845 4.08485e-07 
102 1 0.142914 -1.4663e-05 0.421583 55.845 3.06498e-07 
103 1 0.178592 -9.83001e-07 0.37955 55.845 -5.26458e-07 
104 1 0.178578 0.0356879 0.421617 55.845 6.49434e-08 
105 1 0.214246 0.0357333 0.379664 55.845 -2.56248e-07 
106 1 0.214263 0.0713878 0.421486 55.845 -2.65575e-07 
107 1 0.249971 0.0714721 0.379752 55.845 -9.05803e-08 
108 1 0.249964 0.107142 0.421532 55.845 -4.56402e-07 
118 1 0.214299 3.38183e-05 0.421582 55.845 6.98003e-07 
120 1 0.249915 0.0357653 0.421564 55.845 3.39466e-07 
183 1 0.142898 0.107124 0.294505 55.845 2.94754e-07 
193 1 0.142867 0.0357805 0.294597 55.845 4.21186e-07 
194 1 0.142888 0.071459 0.337119 55.845 -3.165e-08 
195 1 0.178566 0.0714338 0.294483 55.845 4.2131e-07 
196 1 0.178526 0.107172 0.336997 55.845 -2.1141e-07 
197 1 0.214272 0.107127 0.294364 55.845 3.06994e-07 
204 1 0.142854 3.00956e-05 0.336921 55.845 -1.46884e-08 
205 1 0.178601 7.32807e-06 0.294492 55.845 4.98548e-07 
206 1 0.178646 0.0357505 0.33707 55.845 9.04967e-08 
207 1 0.214342 0.0357088 0.294497 55.845 -8.98198e-08 
208 1 0.214282 0.0714684 0.337104 55.845 -1.55798e-07 
209 1 0.24996 0.0713519 0.294509 55.845 1.94946e-07 
210 1 0.249923 0.107134 0.336969 55.845 -3.12819e-07 
220 1 0.214351 1.65929e-05 0.337 55.845 3.00103e-07 
222 1 0.249996 0.0356852 0.337101 55.845 2.82589e-07 
296 1 0.142894 0.0714179 0.252413 55.845 -4.57692e-07 
298 1 0.178539 0.107185 0.252337 55.845 1.37533e-07 
306 1 0.142881 5.15167e-06 0.25236 55.845 -1.42503e-07 
308 1 0.178592 0.035729 0.252382 55.845 -1.06179e-07 
310 1 0.214277 0.0714531 0.252392 55.845 8.69679e-10 
312 1 0.250007 0.107095 0.252335 55.845 2.25271e-07 
322 1 0.21428 -8.54044e-06 0.252369 55.845 -1.88724e-07 
324 1 0.25003 0.0356888 0.252407 55.845 -2.21199e-07 
30 1 0.28573 0.10716 0.462943 55.845 2.0234e-07 
35 1 0.250048 8.56388e-05 0.46313 55.845 -4.21879e-07 
36 1 0.285695 0.0357006 0.46317 55.845 -1.81181e-07 
37 1 0.321412 0.0714033 0.463054 55.845 2.68583e-07 
38 1 0.357068 0.107158 0.463027 55.845 1.80698e-07 
42 1 0.321476 -1.84299e-05 0.463108 55.845 -1.6563e-08 
43 1 0.3572 0.0357016 0.463114 55.845 -5.32176e-09 
109 1 0.285691 0.1071 0.379506 55.845 4.6427e-08 
119 1 0.250001 -5.6127e-06 0.379705 55.845 -7.55002e-07 
121 1 0.285672 0.0357094 0.379683 55.845 -2.38055e-07 
122 1 0.285645 0.0714194 0.421582 55.845 7.13921e-09 
123 1 0.321444 0.0713484 0.379626 55.845 3.90681e-08 
124 1 0.321512 0.107146 0.421451 55.845 -3.50548e-07 
125 1 0.357165 0.107152 0.379561 55.845 5.83478e-07 
133 1 0.321421 -1.47376e-05 0.379669 55.845 -2.15879e-07 
134 1 0.321422 0.0357522 0.421621 55.845 1.48175e-07 
135 1 0.357095 0.0356915 0.379656 55.845 4.0564e-09 
136 1 0.357182 0.0713974 0.421512 55.845 -2.59926e-07 
211 1 0.285758 0.107031 0.294476 55.845 1.67507e-07 
221 1 0.249964 1.39384e-05 0.294445 55.845 -6.97922e-08 
223 1 0.285695 0.0357477 0.294427 55.845 8.08307e-08 
224 1 0.285639 0.0713455 0.337186 55.845 -1.88691e-07 
225 1 0.321382 0.0714343 0.29449 55.845 3.41684e-07 
226 1 0.321449 0.107111 0.336943 55.845 -5.74007e-07 
227 1 0.357108 0.10721 0.294498 55.845 2.8704e-07 
235 1 0.321504 3.37306e-05 0.294479 55.845 9.30423e-08 
236 1 0.32144 0.0357214 0.336913 55.845 -1.32037e-07 
237 1 0.357258 0.0357825 0.294512 55.845 2.16502e-07 
238 1 0.357137 0.0714697 0.337047 55.845 -7.6117e-07 
326 1 0.285729 0.071393 0.252402 55.845 -1.84941e-07 
328 1 0.32142 0.107126 0.252262 55.845 -5.35852e-07 
338 1 0.321471 0.0357597 0.252479 55.845 -5.29314e-07 
340 1 0.357151 0.0714654 0.252382 55.845 -9.87405e-07 
44 1 0.392838 0.0714097 0.463034 55.845 2.69572e-07 
45 1 0.428629 0.107131 0.462995 55.845 -1.01028e-08 
47 1 0.39283 -2.5735e-06 0.463057 55.845 2.71183e-08 
48 1 0.428603 0.0357118 0.463079 55.845 -7.99095e-08 
49 1 0.464293 0.0714396 0.462991 55.845 -5.34767e-08 
50 1 0.46432 6.46476e-05 0.463148 55.845 -5.17745e-07 
137 1 0.392888 0.0714061 0.37957 55.845 1.17801e-07 
138 1 0.392897 0.107134 0.421479 55.845 -2.06355e-07 
139 1 0.42862 0.10721 0.379581 55.845 3.40064e-07 
144 1 0.392846 -4.00161e-05 0.379654 55.845 -2.47079e-07 
145 1 0.392895 0.0356789 0.421543 55.845 2.38161e-08 
146 1 0.428594 0.0357428 0.379508 55.845 -5.70191e-07 
147 1 0.428609 0.0714611 0.421561 55.845 2.74435e-07 
148 1 0.464289 0.0714539 0.379637 55.845 -2.36709e-07 
149 1 0.464277 0.107172 0.421453 55.845 2.12807e-07 
150 1 0.428617 1.95813e-05 0.421541 55.845 -1.28105e-08 
151 1 0.464294 -2.88287e-05 0.379597 55.845 -3.6303e-07 
152 1 0.464266 0.0357115 0.421424 55.845 5.05731e-07 
239 1 0.39289 0.0714102 0.294521 55.845 3.1746e-07 
240 1 0.392861 0.107152 0.337003 55.845 -4.1916e-07 
241 1 0.428538 0.107078 0.294461 55.845 1.45717e-07 
246 1 0.392856 -1.09618e-06 0.294495 55.845 -3.18185e-08 
247 1 0.39285 0.0356211 0.336967 55.845 -1.32316e-07 
248 1 0.42858 0.0356886 0.2945 55.845 4.53511e-08 
249 1 0.428572 0.0714376 0.337021 55.845 6.52615e-08 
250 1 0.464319 0.0713941 0.294505 55.845 4.54221e-07 
251 1 0.464287 0.10714 0.336978 55.845 -8.79732e-08 
252 1 0.428564 -2.28485e-05 0.33703 55.845 3.39776e-07 
253 1 0.464292 1.88206e-05 0.294475 55.845 -1.37267e-07 
254 1 0.464344 0.0356383 0.33704 55.845 1.29401e-07 
342 1 0.392836 0.107091 0.252475 55.845 -7.97917e-07 
349 1 0.392898 0.0356629 0.252464 55.845 -5.04041e-07 
351 1 0.428558 0.0713863 0.252336 55.845 -4.25768e-07 
353 1 0.464254 0.107126 0.25235 55.845 -2.12755e-07 
354 1 0.428558 -1.25837e-05 0.252504 55.845 7.68945e-08 
356 1 0.464279 0.0357141 0.252387 55.845 1.07266e-07 
1 1 3.24483e-05 0.17858 0.463126 55.845 -1.84597e-07 
2 1 0.0357707 0.214343 0.463027 55.845 -1.48942e-07 
4 1 0.0357476 0.142938 0.463032 55.845 9.3107e-08 
5 1 0.0714917 0.178513 0.462969 55.845 2.38694e-07 
6 1 0.107221 0.214285 0.463039 55.845 5.7621e-08 
10 1 0.107202 0.142874 0.463024 55.845 7.12316e-07 
51 1 -1.44311e-05 0.178605 0.379612 55.845 -2.414e-07 
52 1 -3.10602e-05 0.2143 0.421545 55.845 -4.3545e-08 
53 1 0.0357082 0.214297 0.379608 55.845 3.81458e-07 
54 1 0.0357054 0.249972 0.421416 55.845 -1.11044e-07 
56 1 1.23585e-06 0.142866 0.421581 55.845 5.57189e-07 
57 1 0.0357177 0.142814 0.379566 55.845 -2.9203e-07 
58 1 0.0356908 0.178568 0.421425 55.845 -1.44259e-07 
59 1 0.0714269 0.178592 0.379682 55.845 6.0935e-07 
60 1 0.0714862 0.214302 0.42137 55.845 -7.5389e-07 
61 1 0.107211 0.214308 0.379519 55.845 5.04089e-07 
62 1 0.107136 0.249974 0.421525 55.845 -1.49915e-07 
68 1 0.071476 0.142891 0.42159 55.845 -4.24708e-07 
69 1 0.107152 0.142839 0.379697 55.845 4.69343e-07 
70 1 0.107239 0.178607 0.421531 55.845 -8.30514e-07 
153 1 -1.06419e-06 0.178598 0.294374 55.845 2.56055e-07 
154 1 4.1875e-05 0.214285 0.336993 55.845 -1.15874e-07 
155 1 0.0356707 0.214265 0.294529 55.845 6.64743e-07 
156 1 0.0356385 0.249967 0.336931 55.845 -3.33365e-07 
158 1 3.24799e-05 0.14286 0.337047 55.845 -2.87983e-08 
159 1 0.0357045 0.142827 0.294565 55.845 3.83456e-07 
160 1 0.0356771 0.178539 0.336966 55.845 -4.68505e-07 
161 1 0.0713829 0.178594 0.294548 55.845 6.98872e-07 
162 1 0.071463 0.214288 0.336893 55.845 -6.1152e-07 
163 1 0.107178 0.214249 0.294568 55.845 4.24667e-07 
164 1 0.107115 0.250027 0.337015 55.845 -3.98765e-07 
170 1 0.0714382 0.142802 0.337124 55.845 -5.35703e-07 
171 1 0.107085 0.142838 0.294467 55.845 3.8502e-07 
172 1 0.107103 0.178519 0.336989 55.845 -4.7722e-07 
256 1 -4.45752e-06 0.214294 0.252333 55.845 5.07884e-08 
258 1 0.0356613 0.24996 0.252442 55.845 -1.57474e-07 
260 1 3.06315e-05 0.142858 0.252288 55.845 6.08674e-08 
262 1 0.0356192 0.178564 0.25247 55.845 -1.74694e-07 
264 1 0.0714062 0.214288 0.252484 55.845 -3.02933e-07 
266 1 0.107134 0.249966 0.252386 55.845 -3.4301e-07 
272 1 0.0713806 0.142872 0.252488 55.845 -3.99896e-07 
274 1 0.10715 0.17857 0.252513 55.845 -6.54622e-07 
11 1 0.14291 0.178631 0.46317 55.845 4.03658e-07 
12 1 0.17861 0.214313 0.463125 55.845 -1.50729e-07 
17 1 0.178594 0.142901 0.463189 55.845 4.98937e-07 
18 1 0.214222 0.178568 0.463083 55.845 2.24933e-07 
19 1 0.249977 0.214294 0.462865 55.845 1.68431e-07 
24 1 0.249992 0.142888 0.4629 55.845 3.94837e-07 
71 1 0.142872 0.17865 0.379603 55.845 7.26031e-07 
72 1 0.14293 0.214351 0.421478 55.845 -2.12948e-07 
73 1 0.178639 0.214319 0.379486 55.845 4.21491e-07 
82 1 0.142913 0.142871 0.421524 55.845 -6.4525e-07 
83 1 0.17864 0.142875 0.379712 55.845 5.64518e-07 
84 1 0.178596 0.178563 0.421415 55.845 -2.92436e-07 
85 1 0.214283 0.178592 0.379587 55.845 1.70439e-07 
86 1 0.21426 0.21424 0.421484 55.845 1.82547e-07 
87 1 0.250083 0.214258 0.379539 55.845 -1.57507e-08 
96 1 0.214306 0.142831 0.421612 55.845 -2.19881e-07 
97 1 0.249921 0.142806 0.379555 55.845 -1.82182e-07 
98 1 0.250021 0.178555 0.421383 55.845 -3.0254e-07 
173 1 0.142886 0.178551 0.294376 55.845 1.63443e-07 
174 1 0.14287 0.214223 0.336934 55.845 -4.1443e-07 
175 1 0.17856 0.214288 0.294409 55.845 -2.27167e-07 
184 1 0.142869 0.142895 0.336961 55.845 -4.72488e-07 
185 1 0.178584 0.142865 0.294519 55.845 3.71299e-07 
186 1 0.17855 0.178619 0.337029 55.845 -7.30962e-07 
187 1 0.214276 0.178562 0.29442 55.845 2.41013e-07 
188 1 0.214351 0.214252 0.336773 55.845 -5.56887e-07 
189 1 0.250043 0.214294 0.294318 55.845 3.86524e-07 
198 1 0.214263 0.142846 0.337003 55.845 -6.29495e-07 
199 1 0.250024 0.142846 0.29443 55.845 4.63176e-07 
200 1 0.250034 0.1785 0.336873 55.845 -6.17735e-07 
276 1 0.142843 0.214286 0.25238 55.845 -2.13797e-07 
286 1 0.142902 0.142791 0.252444 55.845 -2.47513e-07 
288 1 0.178575 0.178554 0.252344 55.845 -2.60281e-09 
290 1 0.214268 0.214333 0.252277 55.845 -1.03683e-08 
300 1 0.214285 0.142868 0.252337 55.845 5.1354e-07 
302 1 0.250003 0.178586 0.252278 55.845 3.08473e-08 
25 1 0.285718 0.178547 0.462958 55.845 2.68055e-07 
26 1 0.321427 0.2143 0.46292 55.845 2.7721e-07 
31 1 0.321399 0.142876 0.462932 55.845 3.09816e-07 
32 1 0.357112 0.178567 0.462968 55.845 -7.85534e-09 
99 1 0.285745 0.178544 0.379448 55.845 9.43719e-08 
100 1 0.285758 0.214299 0.421387 55.845 -3.22092e-07 
101 1 0.32149 0.214264 0.379593 55.845 1.80868e-07 
110 1 0.285717 0.142862 0.42134 55.845 -2.20256e-07 
111 1 0.321458 0.142906 0.379516 55.845 1.39138e-07 
112 1 0.321491 0.178593 0.42137 55.845 -4.25873e-07 
113 1 0.357168 0.17858 0.379561 55.845 5.94082e-07 
114 1 0.357178 0.214289 0.421478 55.845 -6.81885e-07 
126 1 0.357156 0.142866 0.421454 55.845 -1.44687e-07 
201 1 0.285747 0.178562 0.294263 55.845 4.06947e-07 
202 1 0.285751 0.214263 0.33689 55.845 -3.62959e-07 
203 1 0.321458 0.214325 0.294369 55.845 4.30509e-07 
212 1 0.285689 0.142819 0.336931 55.845 -6.24246e-07 
213 1 0.321427 0.142845 0.294439 55.845 5.28033e-07 
214 1 0.321464 0.178549 0.336979 55.845 -2.52077e-07 
215 1 0.357169 0.178609 0.294396 55.845 4.0041e-07 
216 1 0.357114 0.214256 0.336847 55.845 -2.2422e-07 