ITEM: TIMESTEP
7300
ITEM: NUMBER OF ATOMS
5880
ITEM: BOX BOUNDS pp pp ff
-27.9433 27.9433
-27.9433 27.9433
0 34.092
ITEM: ATOMS id type xs ys zs mass q 
259 1 -6.68253e-05 0.107131 0.2106 55.845 -1.10188e-07 
267 1 -5.09688e-05 0.0356869 0.210914 55.845 -9.48464e-08 
269 1 0.0356151 0.071497 0.210992 55.845 4.11167e-08 
271 1 0.071412 0.107209 0.210616 55.845 8.8289e-08 
279 1 0.0357412 5.12003e-05 0.210564 55.845 -2.7176e-07 
281 1 0.0713423 0.0358479 0.21095 55.845 -9.27647e-08 
283 1 0.107185 0.0713577 0.21069 55.845 -1.43439e-08 
293 1 0.107147 3.03486e-05 0.210784 55.845 -1.96614e-07 
361 1 -6.00294e-05 0.107105 0.125583 55.845 -9.64144e-08 
369 1 -5.51555e-05 0.0356978 0.125544 55.845 -1.18612e-07 
370 1 -1.63404e-05 0.0713488 0.168376 55.845 2.03928e-07 
371 1 0.0357118 0.0715047 0.125627 55.845 -1.35054e-07 
372 1 0.0356712 0.107206 0.168282 55.845 2.27508e-07 
373 1 0.0714042 0.107175 0.125545 55.845 -1.29057e-07 
380 1 5.85194e-06 -1.56832e-05 0.168339 55.845 3.43147e-07 
381 1 0.0357441 4.9525e-05 0.125568 55.845 4.56197e-09 
382 1 0.0356871 0.0357999 0.168273 55.845 2.57191e-07 
383 1 0.0713195 0.0358066 0.125535 55.845 -7.86339e-08 
384 1 0.0713896 0.0714431 0.168274 55.845 2.52898e-07 
385 1 0.107173 0.0713994 0.125532 55.845 -1.19779e-08 
386 1 0.10719 0.10712 0.16823 55.845 1.97039e-07 
394 1 0.0714091 5.91755e-05 0.168438 55.845 3.47874e-07 
395 1 0.1071 9.69227e-05 0.125743 55.845 -6.53964e-08 
396 1 0.107045 0.035798 0.168233 55.845 1.89989e-07 
463 1 0 0.107143 0.0416667 55.845 -5.52388e-07 
471 1 0 0.0357143 0.0416667 55.845 -5.41324e-07 
472 1 -7.84773e-05 0.0714524 0.0834339 55.845 -2.62367e-07 
473 1 0.0357143 0.0714286 0.0416667 55.845 -4.3588e-07 
474 1 0.035721 0.107188 0.0834771 55.845 4.17068e-08 
475 1 0.0714286 0.107143 0.0416667 55.845 -4.23553e-08 
482 1 -8.50784e-05 3.5821e-05 0.0833052 55.845 1.06261e-07 
483 1 0.0357143 0 0.0416667 55.845 -3.09599e-07 
484 1 0.0357201 0.0357383 0.0833373 55.845 -7.17683e-08 
485 1 0.0714286 0.0357143 0.0416667 55.845 -3.21037e-07 
486 1 0.0714766 0.0714033 0.08349 55.845 1.41398e-07 
487 1 0.107143 0.0714286 0.0416667 55.845 -2.86436e-08 
488 1 0.107117 0.107151 0.0834421 55.845 1.64668e-07 
496 1 0.0714592 2.06979e-05 0.0833152 55.845 -8.87255e-08 
497 1 0.107143 0 0.0416667 55.845 -5.83392e-07 
498 1 0.107183 0.0358009 0.0833502 55.845 6.42557e-08 
567 1 0 0.0714286 0 55.845 -9.79703e-08 
568 1 0.0357143 0.107143 0 55.845 1.55443e-07 
572 1 0 0 0 55.845 5.63487e-07 
573 1 0.0357143 0.0357143 0 55.845 1.28188e-07 
574 1 0.0714286 0.0714286 0 55.845 2.65854e-07 
575 1 0.107143 0.107143 0 55.845 2.1408e-07 
579 1 0.0714286 0 0 55.845 1.7121e-07 
580 1 0.107143 0.0357143 0 55.845 2.69999e-07 
285 1 0.142847 0.107193 0.210555 55.845 1.02394e-09 
295 1 0.142826 0.0357258 0.210663 55.845 -1.72764e-07 
297 1 0.178647 0.07139 0.210654 55.845 -4.25359e-08 
299 1 0.214284 0.107158 0.210776 55.845 -1.77141e-07 
307 1 0.178584 -4.02475e-05 0.210591 55.845 -1.87585e-07 
309 1 0.214356 0.0357278 0.21063 55.845 -7.23279e-08 
311 1 0.250071 0.0713471 0.210598 55.845 1.67387e-09 
387 1 0.142947 0.107204 0.125453 55.845 -1.1387e-07 
397 1 0.142872 0.0357719 0.125463 55.845 4.04814e-08 
398 1 0.142888 0.0714622 0.168097 55.845 2.14815e-07 
399 1 0.178644 0.0714184 0.125541 55.845 -5.02483e-08 
400 1 0.178576 0.107176 0.168124 55.845 3.2649e-07 
401 1 0.214378 0.107109 0.125515 55.845 -2.63214e-08 
408 1 0.142861 -2.78277e-05 0.16822 55.845 4.05419e-07 
409 1 0.178581 4.35384e-05 0.125675 55.845 1.60095e-07 
410 1 0.178622 0.035776 0.168208 55.845 2.26794e-07 
411 1 0.214364 0.0357192 0.125653 55.845 -3.79653e-08 
412 1 0.214289 0.0714978 0.168327 55.845 2.52647e-07 
413 1 0.25003 0.0714798 0.125734 55.845 5.62132e-08 
414 1 0.250032 0.107188 0.16825 55.845 2.83543e-07 
424 1 0.214275 -7.0839e-06 0.168224 55.845 1.83067e-07 
426 1 0.250091 0.0356423 0.168238 55.845 1.58608e-07 
489 1 0.142857 0.107143 0.0416667 55.845 -2.44949e-07 
499 1 0.142857 0.0357143 0.0416667 55.845 -2.29917e-07 
500 1 0.142803 0.071462 0.0833225 55.845 1.93097e-07 
501 1 0.178571 0.0714286 0.0416667 55.845 -3.26529e-07 
502 1 0.178582 0.107153 0.0833047 55.845 -5.98199e-08 
503 1 0.214286 0.107143 0.0416667 55.845 -5.24631e-07 
510 1 0.142868 6.1451e-06 0.0834627 55.845 -3.57629e-08 
511 1 0.178571 0 0.0416667 55.845 -3.97767e-07 
512 1 0.178547 0.0357795 0.0833151 55.845 7.78718e-08 
513 1 0.214286 0.0357143 0.0416667 55.845 -3.86449e-07 
514 1 0.214295 0.0714611 0.0832907 55.845 -3.73709e-08 
515 1 0.25 0.0714286 0.0416667 55.845 -4.92838e-07 
516 1 0.249931 0.107144 0.0832791 55.845 -4.99693e-08 
526 1 0.214316 6.54312e-05 0.0833023 55.845 1.70568e-07 
528 1 0.249968 0.0358023 0.0834154 55.845 -3.84902e-08 
581 1 0.142857 0.0714286 0 55.845 3.51644e-07 
582 1 0.178571 0.107143 0 55.845 2.36124e-07 
586 1 0.142857 0 0 55.845 1.60707e-07 
587 1 0.178571 0.0357143 0 55.845 3.28073e-07 
588 1 0.214286 0.0714286 0 55.845 2.45118e-07 
589 1 0.25 0.107143 0 55.845 4.67046e-07 
594 1 0.214286 0 0 55.845 1.97108e-07 
595 1 0.25 0.0357143 0 55.845 1.19132e-07 
313 1 0.285757 0.107132 0.210731 55.845 3.51296e-08 
323 1 0.250083 -2.90658e-06 0.210701 55.845 9.70147e-10 
325 1 0.285872 0.0357166 0.210766 55.845 2.00696e-07 
327 1 0.321512 0.0713786 0.210893 55.845 3.31873e-07 
329 1 0.357229 0.107187 0.210774 55.845 4.14999e-07 
337 1 0.321549 -4.89181e-05 0.210674 55.845 3.56051e-07 
339 1 0.357146 0.0357497 0.21069 55.845 3.85511e-07 
415 1 0.285711 0.107149 0.125658 55.845 5.4053e-08 
425 1 0.250041 -3.2809e-05 0.125608 55.845 9.9888e-08 
427 1 0.285768 0.0357093 0.125661 55.845 -4.57208e-08 
428 1 0.285771 0.0713864 0.168258 55.845 1.55628e-07 
429 1 0.321505 0.0713264 0.125529 55.845 -1.35052e-08 
430 1 0.321375 0.107035 0.168229 55.845 2.42061e-08 
431 1 0.357082 0.107104 0.125396 55.845 5.80752e-08 
439 1 0.321486 -2.13722e-06 0.12556 55.845 5.6367e-08 
440 1 0.321439 0.0357564 0.16819 55.845 -8.34407e-09 
441 1 0.357183 0.0356497 0.125524 55.845 7.55533e-09 
442 1 0.357171 0.071493 0.168229 55.845 -1.3167e-07 
517 1 0.285714 0.107143 0.0416667 55.845 -3.56281e-07 
527 1 0.25 0 0.0416667 55.845 -2.25915e-07 
529 1 0.285714 0.0357143 0.0416667 55.845 -4.05332e-07 
530 1 0.285648 0.0714822 0.0833907 55.845 -1.05955e-07 
531 1 0.321429 0.0714286 0.0416667 55.845 -2.56282e-07 
532 1 0.321376 0.107233 0.0832412 55.845 -5.9426e-09 
533 1 0.357143 0.107143 0.0416667 55.845 -2.30983e-07 
603 1 0.357143 0.0714286 0 55.845 2.00665e-07 
541 1 0.321429 0 0.0416667 55.845 -2.28804e-07 
542 1 0.321453 0.035695 0.0834044 55.845 -2.65522e-08 
543 1 0.357143 0.0357143 0.0416667 55.845 -1.65189e-07 
544 1 0.357141 0.0714696 0.083314 55.845 1.60608e-07 
602 1 0.321429 0.0357143 0 55.845 1.75399e-07 
596 1 0.285714 0.0714286 0 55.845 1.55392e-07 
597 1 0.321429 0.107143 0 55.845 1.64911e-07 
612 1 0.464286 0.0357143 0 55.845 3.50393e-07 
611 1 0.428571 0 0 55.845 3.56188e-07 
610 1 0.464286 0.107143 0 55.845 3.64924e-07 
609 1 0.428571 0.0714286 0 55.845 3.67762e-07 
608 1 0.392857 0.0357143 0 55.845 2.2883e-07 
341 1 0.392856 0.0714578 0.21085 55.845 3.64611e-07 
343 1 0.428612 0.107058 0.210792 55.845 3.4201e-07 
348 1 0.392861 -7.84669e-05 0.210748 55.845 2.4214e-07 
350 1 0.428588 0.0357321 0.21067 55.845 1.12545e-07 
352 1 0.464274 0.071414 0.210819 55.845 7.42047e-08 
355 1 0.464282 -2.41479e-05 0.210754 55.845 -1.96659e-08 
443 1 0.392864 0.0714574 0.12563 55.845 1.60512e-07 
444 1 0.39282 0.10713 0.168313 55.845 -1.30453e-07 
445 1 0.428559 0.107033 0.125644 55.845 1.71723e-07 
604 1 0.392857 0.107143 0 55.845 8.86761e-08 
450 1 0.392828 -3.97854e-06 0.125644 55.845 -1.78014e-08 
451 1 0.392853 0.0357221 0.168265 55.845 4.97328e-08 
452 1 0.428578 0.0357991 0.125458 55.845 1.49065e-07 
453 1 0.428568 0.071384 0.16839 55.845 8.74179e-08 
454 1 0.464275 0.071475 0.125587 55.845 2.14706e-07 
455 1 0.464286 0.10711 0.168276 55.845 -1.22603e-08 
456 1 0.428572 -4.72321e-05 0.168323 55.845 1.64097e-07 
457 1 0.464342 -2.60922e-05 0.125667 55.845 9.26014e-08 
458 1 0.464288 0.0356408 0.168092 55.845 1.82181e-07 
545 1 0.392857 0.0714286 0.0416667 55.845 -1.81339e-08 
546 1 0.392837 0.107115 0.083413 55.845 7.91974e-09 
547 1 0.428571 0.107143 0.0416667 55.845 -2.87409e-07 
552 1 0.392857 0 0.0416667 55.845 -3.75005e-07 
553 1 0.392897 0.0356964 0.0833691 55.845 8.55134e-08 
554 1 0.428571 0.0357143 0.0416667 55.845 -2.6903e-07 
555 1 0.428574 0.0714744 0.083253 55.845 1.61088e-07 
556 1 0.464286 0.0714286 0.0416667 55.845 -4.03757e-07 
557 1 0.46436 0.107178 0.0833796 55.845 -1.10092e-08 
558 1 0.4285 -5.79592e-05 0.0835816 55.845 -1.41583e-07 
559 1 0.464286 0 0.0416667 55.845 -4.87275e-07 
560 1 0.464269 0.0356314 0.083511 55.845 -1.43909e-07 
255 1 -1.67676e-05 0.178591 0.210727 55.845 -4.67079e-07 
257 1 0.0356762 0.214392 0.210747 55.845 -4.16514e-07 
261 1 0.0357551 0.142798 0.210805 55.845 -1.41366e-07 
263 1 0.0713907 0.178628 0.210577 55.845 -3.9503e-08 
265 1 0.107151 0.214307 0.210632 55.845 -1.2908e-07 
273 1 0.107243 0.14294 0.210842 55.845 6.80191e-08 
357 1 6.44316e-05 0.178732 0.125568 55.845 1.79389e-07 
358 1 -3.05736e-05 0.214229 0.168199 55.845 4.96906e-07 
359 1 0.0356746 0.214252 0.125372 55.845 -1.36133e-07 
360 1 0.0356531 0.249966 0.168293 55.845 4.83373e-07 
362 1 -3.49345e-05 0.142983 0.168263 55.845 3.39574e-07 
363 1 0.0357178 0.142899 0.12572 55.845 -2.28528e-08 
364 1 0.0357873 0.178565 0.168281 55.845 3.46019e-07 
365 1 0.0713783 0.178564 0.125773 55.845 -1.8803e-07 
366 1 0.071353 0.2144 0.168227 55.845 3.14119e-07 
367 1 0.107161 0.214259 0.12554 55.845 -3.0568e-07 
368 1 0.107122 0.249989 0.168201 55.845 4.52282e-07 
374 1 0.0715021 0.142892 0.168359 55.845 2.17931e-07 
375 1 0.107101 0.142855 0.12562 55.845 -2.92096e-07 
376 1 0.107153 0.17857 0.168265 55.845 4.69164e-07 
459 1 0 0.178571 0.0416667 55.845 -1.72962e-07 
460 1 -4.84069e-05 0.214359 0.0833415 55.845 1.57746e-07 
461 1 0.0357143 0.214286 0.0416667 55.845 -3.93976e-07 
462 1 0.0357254 0.250017 0.0835152 55.845 -8.30324e-08 
464 1 -1.58753e-05 0.142879 0.0835557 55.845 1.27526e-07 
465 1 0.0357143 0.142857 0.0416667 55.845 -1.91253e-07 
466 1 0.0357486 0.178548 0.0832674 55.845 2.03188e-07 
467 1 0.0714286 0.178571 0.0416667 55.845 -3.15102e-07 
468 1 0.071456 0.214394 0.0834988 55.845 -6.92023e-08 
469 1 0.107143 0.214286 0.0416667 55.845 -3.5279e-07 
470 1 0.107194 0.25015 0.0835801 55.845 1.58081e-07 
476 1 0.071378 0.142894 0.0832961 55.845 9.01611e-08 
477 1 0.107143 0.142857 0.0416667 55.845 -3.25895e-07 
478 1 0.107187 0.17859 0.083467 55.845 -1.47215e-07 
561 1 0 0.214286 0 55.845 2.6497e-07 
562 1 0.0357143 0.25 0 55.845 1.79448e-08 
563 1 0 0.142857 0 55.845 2.77901e-07 
564 1 0.0357143 0.178571 0 55.845 2.24688e-07 
565 1 0.0714286 0.214286 0 55.845 8.71952e-08 
566 1 0.107143 0.25 0 55.845 3.24013e-07 
569 1 0.0714286 0.142857 0 55.845 1.95373e-07 
570 1 0.107143 0.178571 0 55.845 5.7259e-08 
275 1 0.142767 0.178619 0.210784 55.845 -5.39661e-08 
277 1 0.17854 0.214214 0.210853 55.845 -4.18503e-07 
287 1 0.178572 0.14276 0.210847 55.845 -1.31821e-07 
289 1 0.214143 0.178566 0.210827 55.845 -4.19554e-07 
291 1 0.24997 0.214283 0.210775 55.845 -2.2544e-07 
301 1 0.249959 0.142922 0.210886 55.845 -3.40492e-07 
377 1 0.142896 0.178647 0.125578 55.845 -3.86199e-07 
378 1 0.142979 0.214322 0.168285 55.845 5.29339e-07 
379 1 0.178575 0.214189 0.125541 55.845 -9.79137e-08 
388 1 0.142891 0.142965 0.168049 55.845 2.8062e-07 
389 1 0.178619 0.142887 0.12561 55.845 -2.70596e-07 
390 1 0.178505 0.17855 0.168448 55.845 3.82894e-07 
391 1 0.214302 0.178559 0.125462 55.845 -1.25054e-08 
392 1 0.214269 0.214189 0.168234 55.845 5.29453e-07 
393 1 0.250002 0.214194 0.125659 55.845 -1.42065e-07 
402 1 0.214333 0.142899 0.168343 55.845 4.13388e-07 
403 1 0.25 0.142836 0.12564 55.845 1.46571e-07 
404 1 0.249915 0.178405 0.168473 55.845 4.39569e-07 
479 1 0.142857 0.178571 0.0416667 55.845 -4.12681e-07 
480 1 0.142858 0.214286 0.0832795 55.845 4.82542e-08 
481 1 0.178571 0.214286 0.0416667 55.845 -2.22072e-07 
490 1 0.142797 0.142826 0.0832734 55.845 -1.44461e-07 
491 1 0.178571 0.142857 0.0416667 55.845 -4.49817e-07 
492 1 0.178501 0.178522 0.0835921 55.845 -3.6728e-09 
493 1 0.214286 0.178571 0.0416667 55.845 -3.56642e-07 
494 1 0.214309 0.214275 0.083449 55.845 -1.04264e-08 
495 1 0.25 0.214286 0.0416667 55.845 -6.12276e-07 
504 1 0.214238 0.142851 0.0834258 55.845 -3.17084e-09 
505 1 0.25 0.142857 0.0416667 55.845 -2.60263e-07 
506 1 0.250043 0.17845 0.0834012 55.845 7.34308e-08 
571 1 0.142857 0.214286 0 55.845 3.38672e-07 
576 1 0.142857 0.142857 0 55.845 1.1563e-07 
577 1 0.178571 0.178571 0 55.845 4.20681e-07 
578 1 0.214286 0.214286 0 55.845 4.38791e-07 
583 1 0.214286 0.142857 0 55.845 4.88234e-07 
584 1 0.25 0.178571 0 55.845 6.53437e-07 
303 1 0.28571 0.178462 0.210918 55.845 -2.00343e-07 
305 1 0.321472 0.214304 0.210794 55.845 8.46766e-08 
315 1 0.321518 0.142771 0.210865 55.845 7.91993e-08 
317 1 0.357171 0.178394 0.210777 55.845 2.75374e-07 
405 1 0.285757 0.178565 0.125708 55.845 1.65447e-07 
406 1 0.285736 0.214294 0.168257 55.845 2.24824e-07 
407 1 0.321422 0.214297 0.125711 55.845 1.71721e-07 
416 1 0.28577 0.142788 0.168487 55.845 1.68715e-07 
417 1 0.321333 0.142795 0.12567 55.845 1.21641e-07 
418 1 0.321372 0.178493 0.168411 55.845 9.51557e-08 
419 1 0.357061 0.178439 0.125536 55.845 7.21237e-08 
420 1 0.357204 0.214206 0.168098 55.845 -2.74305e-08 
432 1 0.357193 0.142799 0.168084 55.845 -2.50816e-08 
507 1 0.285714 0.178571 0.0416667 55.845 -3.31771e-07 
508 1 0.285776 0.214241 0.0834023 55.845 -1.15131e-07 
509 1 0.321429 0.214286 0.0416667 55.845 -3.65214e-07 
518 1 0.285637 0.14289 0.0835409 55.845 1.28892e-07 
519 1 0.321429 0.142857 0.0416667 55.845 -3.5539e-07 
520 1 0.321289 0.17854 0.0834367 55.845 -1.7935e-08 
521 1 0.357143 0.178571 0.0416667 55.845 -4.74593e-07 
522 1 0.357169 0.214281 0.0833426 55.845 3.57524e-08 
534 1 0.357122 0.142842 0.083305 55.845 -1.63401e-07 
585 1 0.285714 0.214286 0 55.845 3.16793e-07 
590 1 0.285714 0.142857 0 55.845 6.18697e-07 
591 1 0.321429 0.178571 0 55.845 3.15682e-07 
592 1 0.357143 0.214286 0 55.845 2.95823e-07 
598 1 0.357143 0.142857 0 55.845 4.98962e-08 
319 1 0.392853 0.214218 0.210678 55.845 1.66618e-07 
321 1 0.428572 0.25004 0.210602 55.845 1.6757e-07 
331 1 0.392844 0.142838 0.210599 55.845 4.94491e-07 
333 1 0.428503 0.178591 0.210686 55.845 3.87912e-07 
335 1 0.464299 0.214335 0.210808 55.845 3.38205e-07 
345 1 0.464312 0.142822 0.210723 55.845 1.73592e-07 
606 1 0.464286 0.178571 0 55.845 1.37761e-07 
421 1 0.39288 0.214396 0.125499 55.845 2.21905e-07 
422 1 0.392776 0.250109 0.168251 55.845 -6.66949e-08 
423 1 0.428617 0.250006 0.12544 55.845 4.7737e-07 
433 1 0.392932 0.142798 0.125627 55.845 3.38285e-08 
434 1 0.392845 0.178599 0.168043 55.845 -2.54078e-08 
435 1 0.428507 0.178574 0.125508 55.845 2.6264e-07 
436 1 0.428572 0.214237 0.168173 55.845 -5.8785e-08 
437 1 0.46424 0.214153 0.125634 55.845 3.39418e-07 
605 1 0.428571 0.142857 0 55.845 5.40434e-08 
446 1 0.428615 0.142781 0.168299 55.845 -1.02566e-07 
447 1 0.464331 0.142802 0.125666 55.845 4.19263e-07 
448 1 0.464306 0.178496 0.168366 55.845 -1.35253e-07 
523 1 0.392857 0.214286 0.0416667 55.845 -3.23627e-07 
524 1 0.3928 0.250087 0.0835024 55.845 1.8921e-07 
525 1 0.428571 0.25 0.0416667 55.845 -3.85781e-07 
535 1 0.392857 0.142857 0.0416667 55.845 -5.12531e-07 
536 1 0.392821 0.178539 0.083426 55.845 -1.6223e-07 
537 1 0.428571 0.178571 0.0416667 55.845 -4.97762e-07 
538 1 0.428607 0.214252 0.0834003 55.845 -1.02967e-07 
539 1 0.464286 0.214286 0.0416667 55.845 -5.76752e-07 
548 1 0.428616 0.142801 0.08336 55.845 -1.07628e-07 
549 1 0.464286 0.142857 0.0416667 55.845 -2.73669e-07 
550 1 0.464316 0.178584 0.0834873 55.845 3.11874e-08 
593 1 0.392857 0.25 0 55.845 4.63943e-07 
599 1 0.392857 0.178571 0 55.845 4.00002e-08 
600 1 0.428571 0.214286 0 55.845 1.75209e-07 
3 1 7.15632e-05 0.107094 0.461509 55.845 -4.04434e-07 
7 1 7.70745e-06 0.0357529 0.461714 55.845 -3.55474e-07 
8 1 0.0357978 0.0714426 0.461412 55.845 -3.60537e-07 
9 1 0.0714683 0.107122 0.461627 55.845 -3.10333e-07 
13 1 0.0357657 8.01982e-05 0.461683 55.845 -2.2609e-07 
14 1 0.0714765 0.035717 0.461718 55.845 -2.37189e-07 
15 1 0.1072 0.0714197 0.461573 55.845 -2.2582e-07 
20 1 0.107201 0.000108397 0.461545 55.845 -2.48607e-07 
55 1 -3.96044e-05 0.107174 0.377533 55.845 -6.79554e-08 
63 1 -3.45018e-05 0.0357723 0.377496 55.845 -2.0097e-07 
64 1 0.000106731 0.0714091 0.419843 55.845 5.30228e-07 
65 1 0.0358013 0.0714495 0.377593 55.845 -2.69833e-08 
66 1 0.0357965 0.107213 0.419841 55.845 4.49572e-07 
67 1 0.0715302 0.107186 0.377599 55.845 2.88415e-09 
74 1 0.000116816 7.45097e-05 0.420013 55.845 6.31986e-07 
75 1 0.0357614 -3.827e-05 0.377505 55.845 -4.71101e-07 
76 1 0.0357955 0.03564 0.419671 55.845 5.99463e-07 
77 1 0.0715416 0.0357928 0.377525 55.845 -2.42947e-07 
78 1 0.0715256 0.0714396 0.419895 55.845 5.49629e-07 
79 1 0.107166 0.0714393 0.377627 55.845 -1.64224e-07 
80 1 0.107234 0.107099 0.419765 55.845 4.6966e-07 
88 1 0.0714187 6.86562e-05 0.419821 55.845 5.276e-07 
89 1 0.107138 0.00011666 0.377531 55.845 -2.50803e-07 
90 1 0.107192 0.0357022 0.419699 55.845 5.19144e-07 
157 1 -3.36092e-05 0.10719 0.294588 55.845 1.79092e-07 
165 1 -7.23162e-05 0.0356655 0.294812 55.845 6.57664e-08 
166 1 -2.86633e-05 0.0715096 0.335562 55.845 2.39134e-07 
167 1 0.035707 0.0714891 0.294778 55.845 6.14903e-08 
168 1 0.0356927 0.107143 0.33543 55.845 -5.41244e-08 
169 1 0.0713955 0.107167 0.294627 55.845 -1.93193e-07 
176 1 -2.41722e-05 -8.07383e-06 0.335645 55.845 -3.54873e-08 
177 1 0.0356881 1.12322e-05 0.294554 55.845 -1.25055e-07 
178 1 0.0357439 0.0357609 0.335524 55.845 4.3282e-08 
179 1 0.0714209 0.0357773 0.294352 55.845 -8.94029e-08 
180 1 0.0715263 0.0714537 0.335492 55.845 -1.62117e-07 
181 1 0.107207 0.0714802 0.29456 55.845 -2.67981e-07 
182 1 0.107075 0.10712 0.33557 55.845 -1.32357e-07 
190 1 0.0715307 6.1284e-05 0.335582 55.845 1.82466e-07 
191 1 0.10717 2.3653e-06 0.294575 55.845 1.64962e-07 
192 1 0.107183 0.0358076 0.335431 55.845 -5.64582e-08 
268 1 -7.64291e-05 0.0714636 0.253561 55.845 2.11998e-07 
270 1 0.0356457 0.107145 0.253186 55.845 -1.0798e-07 
278 1 4.58316e-05 2.42312e-05 0.253279 55.845 -7.19342e-08 
280 1 0.0356283 0.0358533 0.25353 55.845 -1.67903e-09 
282 1 0.0713993 0.0715109 0.253357 55.845 -1.64456e-07 
284 1 0.107117 0.107111 0.25317 55.845 -2.91242e-07 
292 1 0.0715063 -2.62592e-06 0.253361 55.845 2.83631e-08 
294 1 0.107225 0.0356936 0.253265 55.845 -1.8166e-07 
16 1 0.142896 0.107109 0.461546 55.845 -2.97937e-07 
21 1 0.142949 0.0356863 0.461464 55.845 -1.73142e-07 
22 1 0.178576 0.0713877 0.461431 55.845 -8.43632e-08 
23 1 0.214276 0.107123 0.461586 55.845 -6.58361e-08 
27 1 0.178635 3.15356e-05 0.461597 55.845 -6.41068e-08 
28 1 0.214306 0.0357334 0.461576 55.845 -1.18516e-07 
29 1 0.250048 0.0714482 0.461608 55.845 -1.51047e-07 
81 1 0.14286 0.107184 0.37755 55.845 -1.18174e-07 
91 1 0.142879 0.0358338 0.377376 55.845 -1.8399e-07 
92 1 0.142999 0.0714009 0.419735 55.845 5.30357e-07 
93 1 0.178612 0.0714349 0.377289 55.845 -1.57637e-07 
94 1 0.178623 0.107128 0.419711 55.845 5.66677e-07 
95 1 0.214443 0.107112 0.377519 55.845 -2.76506e-07 
102 1 0.142804 -7.16947e-05 0.419663 55.845 4.85815e-07 
103 1 0.178598 -4.60198e-05 0.377405 55.845 -5.0323e-08 
104 1 0.178657 0.0356556 0.419647 55.845 3.88459e-07 
105 1 0.214224 0.035809 0.377394 55.845 -1.30447e-07 
106 1 0.214318 0.0713694 0.419851 55.845 4.78152e-07 
107 1 0.249992 0.0713659 0.377663 55.845 4.92829e-08 
108 1 0.250109 0.107107 0.41981 55.845 4.25957e-07 
118 1 0.214283 -0.000140506 0.419687 55.845 3.28537e-07 
120 1 0.249948 0.0356181 0.419951 55.845 2.65537e-07 
183 1 0.142926 0.107133 0.294434 55.845 -1.01949e-07 
193 1 0.142833 0.035765 0.294445 55.845 -8.93195e-08 
194 1 0.142883 0.0715512 0.335514 55.845 -2.56982e-07 
195 1 0.17863 0.0714952 0.294525 55.845 5.25432e-09 
196 1 0.178566 0.107231 0.335451 55.845 -1.08592e-07 
197 1 0.214267 0.107129 0.294487 55.845 1.01577e-07 
204 1 0.142925 5.01908e-05 0.335481 55.845 1.13008e-07 
205 1 0.178555 5.0845e-05 0.294474 55.845 1.19984e-07 
206 1 0.178545 0.0356661 0.33526 55.845 -2.1904e-07 
207 1 0.214342 0.0356983 0.294475 55.845 3.43362e-07 
208 1 0.214283 0.0714875 0.335385 55.845 -5.81954e-08 
209 1 0.250027 0.0713749 0.294588 55.845 3.04814e-07 
210 1 0.250062 0.107103 0.335551 55.845 -2.15735e-07 
220 1 0.214315 -4.74379e-05 0.335434 55.845 -2.84187e-07 
222 1 0.24996 0.0355974 0.335317 55.845 -1.79175e-07 
296 1 0.142979 0.0714413 0.253286 55.845 -2.97105e-07 
298 1 0.17856 0.107033 0.253061 55.845 -1.64601e-08 
306 1 0.142929 1.51491e-05 0.253219 55.845 -1.53341e-07 
308 1 0.178642 0.0357406 0.253177 55.845 -2.1501e-07 
310 1 0.214327 0.0713664 0.25325 55.845 -9.42651e-08 
312 1 0.249996 0.107075 0.25317 55.845 -2.5072e-07 
322 1 0.214297 0.000118441 0.253375 55.845 -3.60106e-07 
324 1 0.250071 0.0356891 0.25329 55.845 -2.67637e-07 
30 1 0.285806 0.107158 0.461696 55.845 6.08521e-09 
35 1 0.249944 -1.58277e-05 0.461748 55.845 -9.67704e-10 
36 1 0.285699 0.035687 0.461596 55.845 -2.33704e-07 
37 1 0.321503 0.0714257 0.461575 55.845 -2.19806e-07 
38 1 0.357161 0.107146 0.461761 55.845 -1.58598e-07 
42 1 0.321469 -2.31015e-05 0.461594 55.845 -1.37253e-07 
43 1 0.357222 0.0355913 0.461481 55.845 -1.83348e-07 
109 1 0.285794 0.107091 0.37746 55.845 -1.7377e-07 
119 1 0.249994 -1.32244e-05 0.377422 55.845 7.9861e-08 
121 1 0.285621 0.035674 0.377627 55.845 2.0095e-07 
122 1 0.285742 0.0714578 0.419858 55.845 3.21928e-07 
123 1 0.321498 0.0713257 0.37761 55.845 2.00348e-07 
124 1 0.321478 0.1072 0.419968 55.845 2.08042e-07 
125 1 0.357139 0.107121 0.377515 55.845 2.68692e-07 
133 1 0.321498 7.8211e-07 0.377503 55.845 2.88848e-07 
134 1 0.321366 0.0356888 0.419829 55.845 2.38298e-07 
135 1 0.357174 0.0356623 0.377615 55.845 1.89197e-07 
136 1 0.357188 0.0713737 0.419875 55.845 2.61705e-07 
211 1 0.28579 0.107079 0.294493 55.845 2.0923e-07 
221 1 0.250021 3.9547e-05 0.294458 55.845 1.82814e-07 
223 1 0.285777 0.0356922 0.294662 55.845 2.02244e-07 
224 1 0.285671 0.0714542 0.335513 55.845 -2.21711e-07 
225 1 0.32142 0.071369 0.294517 55.845 2.68047e-07 
226 1 0.321429 0.107116 0.335534 55.845 -3.75636e-07 
227 1 0.357128 0.107032 0.294552 55.845 2.66654e-07 
235 1 0.32145 -0.000122874 0.294506 55.845 2.33429e-07 
236 1 0.321464 0.0357408 0.335607 55.845 -3.79129e-07 
237 1 0.357277 0.0357008 0.294593 55.845 1.20548e-07 
238 1 0.357173 0.0713606 0.335522 55.845 -4.08866e-07 
326 1 0.285779 0.0714284 0.253094 55.845 -3.24112e-07 
328 1 0.321473 0.107127 0.253297 55.845 -3.90313e-07 
338 1 0.321492 0.0356716 0.253343 55.845 -4.31989e-07 
340 1 0.357208 0.0713878 0.253316 55.845 -5.09905e-07 
44 1 0.392922 0.0713729 0.461612 55.845 -3.58854e-08 
45 1 0.428571 0.107158 0.461402 55.845 -2.74306e-08 
47 1 0.392822 -7.35246e-05 0.461533 55.845 -6.25241e-08 
48 1 0.428608 0.035618 0.461729 55.845 -1.23731e-08 
49 1 0.464343 0.071412 0.461511 55.845 3.10152e-08 
50 1 0.464364 -6.09608e-05 0.461593 55.845 -4.05186e-08 
137 1 0.392858 0.0715688 0.377615 55.845 1.6968e-07 
138 1 0.392836 0.107165 0.419807 55.845 2.01007e-07 
139 1 0.428573 0.107074 0.377604 55.845 2.22485e-07 
144 1 0.392938 -6.84508e-05 0.37746 55.845 -1.38191e-08 
145 1 0.392954 0.0356674 0.419739 55.845 3.11763e-07 
146 1 0.428652 0.0356822 0.377648 55.845 -1.08217e-07 
147 1 0.428522 0.071361 0.420014 55.845 3.15367e-07 
148 1 0.464287 0.0714074 0.377657 55.845 -2.92325e-08 
149 1 0.464383 0.107137 0.420065 55.845 1.2284e-07 
150 1 0.428622 -2.05825e-05 0.419874 55.845 3.8673e-07 
151 1 0.464265 -9.36602e-05 0.377358 55.845 -2.91876e-07 
152 1 0.464335 0.0356145 0.419891 55.845 4.07431e-07 
239 1 0.392891 0.0714822 0.294709 55.845 9.30995e-08 
240 1 0.392895 0.107215 0.335533 55.845 -4.26904e-07 
241 1 0.428542 0.107139 0.294496 55.845 3.38009e-07 
246 1 0.392942 -3.97748e-05 0.294641 55.845 2.78955e-07 
247 1 0.392976 0.0358392 0.335595 55.845 -4.04721e-07 
248 1 0.42866 0.0356981 0.294451 55.845 1.37274e-07 
249 1 0.428563 0.0714609 0.33552 55.845 -3.95892e-07 
250 1 0.464267 0.0715097 0.294832 55.845 3.76316e-07 
251 1 0.46424 0.107214 0.335696 55.845 -4.61577e-07 
252 1 0.42861 1.14493e-05 0.335466 55.845 -1.36885e-07 
253 1 0.464309 -5.96128e-05 0.294576 55.845 3.14464e-07 
254 1 0.464239 0.0356422 0.33556 55.845 -1.18152e-07 
342 1 0.392799 0.107075 0.253323 55.845 -5.5062e-07 
349 1 0.392841 0.0356394 0.253287 55.845 -5.02016e-07 
351 1 0.42855 0.0714181 0.253481 55.845 -5.04684e-07 
353 1 0.464268 0.107124 0.253357 55.845 -5.59477e-07 
354 1 0.428682 -5.55779e-05 0.253238 55.845 -1.94275e-07 
356 1 0.464303 0.0356916 0.253205 55.845 -3.31396e-07 
1 1 -6.48895e-05 0.178581 0.461576 55.845 -2.07117e-08 
2 1 0.0356794 0.21427 0.461576 55.845 -3.00098e-07 
4 1 0.0358038 0.142792 0.461636 55.845 -1.89695e-07 
5 1 0.0715465 0.17855 0.461612 55.845 -3.57058e-07 
6 1 0.107166 0.21433 0.461634 55.845 -2.99385e-07 
10 1 0.107323 0.142875 0.461529 55.845 -3.51462e-07 
51 1 1.22339e-05 0.178597 0.377552 55.845 -2.81287e-07 
52 1 -4.83029e-05 0.21432 0.419856 55.845 6.05153e-07 
53 1 0.0357519 0.214373 0.377471 55.845 -2.79174e-07 
54 1 0.035668 0.250004 0.419787 55.845 5.40106e-07 
56 1 7.43603e-05 0.142954 0.419855 55.845 4.4203e-07 
57 1 0.0358167 0.142897 0.377499 55.845 -1.27815e-07 
58 1 0.0357618 0.178513 0.419897 55.845 5.14896e-07 
59 1 0.0713701 0.178552 0.377574 55.845 -6.17831e-08 
60 1 0.071454 0.214216 0.41992 55.845 5.50561e-07 
61 1 0.107216 0.214258 0.377486 55.845 -1.63178e-07 
62 1 0.107206 0.250109 0.419821 55.845 6.17647e-07 
68 1 0.0714392 0.142821 0.419894 55.845 4.5491e-07 
69 1 0.107133 0.142789 0.377534 55.845 2.68304e-08 
70 1 0.10718 0.178556 0.419869 55.845 5.20586e-07 
153 1 7.50989e-05 0.178656 0.294569 55.845 -2.27845e-07 
154 1 7.96329e-06 0.214261 0.335629 55.845 -5.28794e-08 
155 1 0.0356878 0.214323 0.294593 55.845 2.85979e-08 
156 1 0.0357081 0.249998 0.335507 55.845 2.5379e-07 
158 1 1.46615e-05 0.142988 0.335526 55.845 -1.86257e-07 
159 1 0.0356418 0.14285 0.294466 55.845 -7.44736e-08 
160 1 0.0356984 0.178519 0.335456 55.845 -1.75219e-07 
161 1 0.0714254 0.17858 0.294523 55.845 -2.02541e-08 
162 1 0.0714097 0.214269 0.335681 55.845 2.68066e-08 
163 1 0.107245 0.214222 0.294687 55.845 -1.31178e-07 
164 1 0.107086 0.249999 0.335557 55.845 -9.13126e-08 
170 1 0.0713829 0.142938 0.335496 55.845 -1.42241e-07 
171 1 0.107092 0.142892 0.294493 55.845 -1.03309e-07 
172 1 0.107097 0.178494 0.335415 55.845 3.45442e-08 
256 1 -5.71544e-06 0.21442 0.253262 55.845 -1.64568e-07 
258 1 0.035745 0.250015 0.253274 55.845 2.40436e-07 
260 1 -3.12014e-05 0.142869 0.253176 55.845 -2.30908e-07 
262 1 0.0356829 0.178648 0.253108 55.845 -2.22715e-07 
264 1 0.0714654 0.214353 0.253341 55.845 9.86192e-08 
266 1 0.107174 0.250006 0.253358 55.845 -3.69334e-08 
272 1 0.0713778 0.142846 0.253166 55.845 -2.19817e-07 
274 1 0.107135 0.178604 0.253152 55.845 1.19484e-07 
11 1 0.142954 0.178624 0.461487 55.845 -2.19777e-07 
12 1 0.178576 0.214343 0.461684 55.845 1.35637e-08 
17 1 0.178663 0.142893 0.46164 55.845 -1.28138e-07 
18 1 0.214413 0.178614 0.461535 55.845 2.21954e-07 
19 1 0.250095 0.214189 0.461546 55.845 -1.51076e-08 
24 1 0.250079 0.142832 0.46159 55.845 2.46171e-07 
71 1 0.142864 0.178503 0.377484 55.845 -1.70385e-07 
72 1 0.142906 0.214409 0.419897 55.845 5.74926e-07 
73 1 0.178593 0.214309 0.377515 55.845 -4.38896e-07 
82 1 0.142937 0.142877 0.419909 55.845 4.07145e-07 
83 1 0.178739 0.142911 0.377654 55.845 -3.77856e-07 
84 1 0.178739 0.178678 0.41976 55.845 4.86687e-07 
85 1 0.214296 0.178648 0.37765 55.845 -5.26675e-07 
86 1 0.214304 0.214398 0.419828 55.845 5.05132e-07 
87 1 0.25001 0.214249 0.377656 55.845 -3.18124e-07 
96 1 0.214367 0.142849 0.419898 55.845 5.05782e-07 
97 1 0.250037 0.142825 0.377506 55.845 -4.50278e-07 
98 1 0.250101 0.178569 0.419858 55.845 5.08363e-07 
173 1 0.142877 0.178509 0.294571 55.845 1.10418e-07 
174 1 0.14291 0.214115 0.33563 55.845 -1.17468e-07 
175 1 0.178587 0.214197 0.294697 55.845 -1.14517e-07 
184 1 0.142868 0.142782 0.33555 55.845 1.04234e-07 
185 1 0.17858 0.142868 0.294607 55.845 1.77633e-07 
186 1 0.178635 0.17853 0.335633 55.845 -4.43703e-08 
187 1 0.214361 0.178636 0.294626 55.845 4.26927e-08 
188 1 0.21435 0.214261 0.335626 55.845 -1.59185e-07 
189 1 0.250103 0.214312 0.294569 55.845 2.04581e-07 
198 1 0.214279 0.142824 0.335536 55.845 -2.39269e-07 
199 1 0.250006 0.142855 0.294726 55.845 1.08158e-07 
200 1 0.250077 0.178576 0.335539 55.845 -3.37583e-07 
276 1 0.142907 0.214217 0.253357 55.845 -1.61895e-08 
286 1 0.142992 0.142925 0.253351 55.845 1.03767e-07 
288 1 0.178609 0.178501 0.253364 55.845 6.60706e-08 
290 1 0.214317 0.214203 0.253485 55.845 -1.1364e-08 
300 1 0.214288 0.142834 0.253431 55.845 -5.6288e-08 
302 1 0.249951 0.178582 0.253293 55.845 -1.9984e-07 
25 1 0.285811 0.178496 0.461618 55.845 2.11507e-07 
26 1 0.321463 0.214295 0.461629 55.845 -1.59509e-08 
31 1 0.321413 0.142954 0.461878 55.845 8.00748e-08 
32 1 0.357069 0.17861 0.461796 55.845 -2.96111e-08 
99 1 0.285789 0.178522 0.377535 55.845 -2.7887e-07 
100 1 0.285801 0.214207 0.419763 55.845 3.6014e-07 
101 1 0.321559 0.214228 0.377425 55.845 1.35682e-08 
110 1 0.285759 0.142838 0.419756 55.845 3.49878e-07 
111 1 0.321479 0.142696 0.3777 55.845 2.51457e-08 
112 1 0.321579 0.17852 0.419732 55.845 2.80927e-07 
113 1 0.357179 0.178441 0.377465 55.845 2.94942e-07 
114 1 0.357096 0.214232 0.419866 55.845 1.13828e-07 
126 1 0.35717 0.142872 0.42003 55.845 2.31424e-07 
201 1 0.285727 0.178635 0.294536 55.845 1.71896e-07 
202 1 0.285797 0.214295 0.33555 55.845 -2.65418e-07 
203 1 0.321503 0.214287 0.294571 55.845 3.16047e-07 
212 1 0.285816 0.142826 0.335439 55.845 -4.31485e-07 
213 1 0.321417 0.142836 0.294457 55.845 2.36369e-07 
214 1 0.321517 0.178533 0.335765 55.845 -3.46187e-07 
215 1 0.357175 0.17858 0.294618 55.845 4.88029e-07 