ITEM: TIMESTEP
3700
ITEM: NUMBER OF ATOMS
5880
ITEM: BOX BOUNDS pp pp ff
-27.9354 27.9354
-27.9354 27.9354
0 34.092
ITEM: ATOMS id type xs ys zs mass q 
259 1 4.67671e-05 0.107061 0.209407 55.845 -5.50929e-08 
267 1 6.23957e-05 0.0355983 0.209155 55.845 3.75225e-07 
269 1 0.035837 0.0714134 0.209234 55.845 2.10902e-07 
271 1 0.0714247 0.107176 0.209279 55.845 2.98083e-07 
279 1 0.035717 -4.78909e-05 0.209112 55.845 5.76372e-08 
281 1 0.0713929 0.0357117 0.209115 55.845 -3.85388e-07 
283 1 0.107093 0.0713985 0.209257 55.845 6.56768e-08 
293 1 0.107145 6.20269e-05 0.209209 55.845 -2.93672e-07 
361 1 5.64632e-05 0.10708 0.126834 55.845 -1.92178e-08 
369 1 -1.17167e-05 0.0356823 0.126725 55.845 -2.19534e-07 
370 1 0.000122023 0.0713262 0.168144 55.845 1.3684e-07 
371 1 0.0357639 0.0714553 0.126634 55.845 -4.11111e-07 
372 1 0.0357374 0.1071 0.1682 55.845 3.45228e-07 
373 1 0.0714365 0.107171 0.126727 55.845 -9.04243e-07 
380 1 2.13762e-05 -5.79471e-05 0.168094 55.845 4.2612e-08 
381 1 0.0356808 -5.47915e-05 0.126689 55.845 -9.18296e-08 
382 1 0.03569 0.0357425 0.168023 55.845 2.86152e-07 
383 1 0.0714761 0.0357569 0.126704 55.845 -2.15075e-07 
384 1 0.0714118 0.0714482 0.168029 55.845 -1.05314e-07 
385 1 0.107143 0.0713922 0.12669 55.845 -6.79671e-07 
386 1 0.107202 0.107087 0.167979 55.845 -1.40909e-09 
394 1 0.0714311 -5.46879e-06 0.168004 55.845 4.84962e-08 
395 1 0.107228 2.42055e-05 0.126826 55.845 2.74655e-07 
396 1 0.107188 0.0356758 0.168059 55.845 3.00161e-07 
463 1 0 0.107143 0.0416667 55.845 1.56017e-07 
471 1 0 0.0357143 0.0416667 55.845 -5.6661e-08 
472 1 3.20098e-05 0.0714018 0.0843806 55.845 6.43766e-08 
473 1 0.0357143 0.0714286 0.0416667 55.845 9.56336e-08 
474 1 0.035743 0.10721 0.0845338 55.845 1.00508e-07 
475 1 0.0714286 0.107143 0.0416667 55.845 1.87758e-07 
482 1 -1.14325e-06 -1.15484e-05 0.0843771 55.845 -2.5061e-07 
483 1 0.0357143 0 0.0416667 55.845 2.79991e-07 
484 1 0.0356944 0.0356568 0.0844484 55.845 1.4284e-07 
485 1 0.0714286 0.0357143 0.0416667 55.845 3.68368e-08 
486 1 0.0714388 0.0714283 0.084259 55.845 -3.24285e-07 
487 1 0.107143 0.0714286 0.0416667 55.845 1.80826e-07 
488 1 0.107181 0.107249 0.0844505 55.845 -1.39936e-07 
496 1 0.0714879 -1.82601e-05 0.084538 55.845 2.00001e-07 
497 1 0.107143 0 0.0416667 55.845 -7.17594e-08 
498 1 0.10711 0.0357461 0.0844878 55.845 2.50706e-07 
567 1 0 0.0714286 0 55.845 2.97313e-08 
568 1 0.0357143 0.107143 0 55.845 -3.67547e-08 
572 1 0 0 0 55.845 2.83803e-07 
573 1 0.0357143 0.0357143 0 55.845 1.39543e-07 
574 1 0.0714286 0.0714286 0 55.845 5.01133e-07 
575 1 0.107143 0.107143 0 55.845 9.06471e-07 
579 1 0.0714286 0 0 55.845 -3.89501e-07 
580 1 0.107143 0.0357143 0 55.845 -3.0318e-07 
285 1 0.142868 0.107105 0.209259 55.845 1.76861e-07 
295 1 0.142902 0.0356341 0.209337 55.845 -1.78675e-07 
297 1 0.17856 0.0713958 0.209165 55.845 -3.91344e-07 
299 1 0.214358 0.107068 0.209231 55.845 3.04327e-07 
307 1 0.178566 -2.07234e-05 0.209199 55.845 -2.13796e-07 
309 1 0.214278 0.0356613 0.209261 55.845 -2.40748e-07 
311 1 0.250069 0.0714338 0.209103 55.845 1.59867e-07 
387 1 0.14297 0.107051 0.126689 55.845 -2.29981e-07 
397 1 0.14285 0.0357426 0.126708 55.845 -2.00096e-08 
398 1 0.14281 0.0713951 0.16812 55.845 1.7346e-07 
399 1 0.178601 0.0714344 0.12674 55.845 -3.89989e-07 
400 1 0.178558 0.107151 0.168304 55.845 -6.31557e-08 
401 1 0.214286 0.107136 0.126672 55.845 -5.44466e-07 
408 1 0.142874 1.88167e-05 0.168147 55.845 3.02354e-07 
409 1 0.178599 7.98188e-05 0.126671 55.845 -3.60127e-07 
410 1 0.178521 0.0358681 0.168129 55.845 1.15665e-07 
411 1 0.214264 0.0356642 0.126737 55.845 -1.78827e-08 
412 1 0.214189 0.0714483 0.168123 55.845 6.09345e-08 
413 1 0.249959 0.0713621 0.12662 55.845 -2.75174e-07 
414 1 0.249978 0.107109 0.168104 55.845 -7.85581e-08 
424 1 0.214358 -4.24645e-05 0.168178 55.845 2.14611e-07 
426 1 0.249967 0.0356788 0.168026 55.845 3.50544e-07 
489 1 0.142857 0.107143 0.0416667 55.845 4.38953e-07 
499 1 0.142857 0.0357143 0.0416667 55.845 -2.38343e-07 
500 1 0.142802 0.0713595 0.0844805 55.845 8.37637e-09 
501 1 0.178571 0.0714286 0.0416667 55.845 -2.39202e-08 
502 1 0.178589 0.107147 0.0844795 55.845 -3.672e-08 
503 1 0.214286 0.107143 0.0416667 55.845 3.76931e-07 
510 1 0.142918 -7.78744e-06 0.0845151 55.845 2.31334e-07 
511 1 0.178571 0 0.0416667 55.845 1.52086e-08 
512 1 0.178579 0.0357136 0.0844883 55.845 1.35126e-07 
513 1 0.214286 0.0357143 0.0416667 55.845 -5.7717e-08 
514 1 0.214329 0.0714626 0.0843977 55.845 -8.60977e-09 
515 1 0.25 0.0714286 0.0416667 55.845 2.22331e-07 
516 1 0.250025 0.107217 0.0843829 55.845 -2.04413e-07 
526 1 0.214304 3.19115e-05 0.0844569 55.845 2.10511e-07 
528 1 0.249959 0.0357296 0.0843982 55.845 2.73021e-07 
581 1 0.142857 0.0714286 0 55.845 2.85085e-07 
582 1 0.178571 0.107143 0 55.845 3.95664e-07 
586 1 0.142857 0 0 55.845 -1.09321e-07 
587 1 0.178571 0.0357143 0 55.845 -2.99379e-07 
588 1 0.214286 0.0714286 0 55.845 3.12235e-07 
589 1 0.25 0.107143 0 55.845 5.90411e-07 
594 1 0.214286 0 0 55.845 1.05258e-07 
595 1 0.25 0.0357143 0 55.845 -1.19233e-07 
313 1 0.285753 0.107129 0.209149 55.845 7.81923e-08 
323 1 0.249982 -4.20815e-05 0.20927 55.845 5.48085e-08 
325 1 0.28576 0.0357319 0.209245 55.845 -4.09986e-07 
327 1 0.321309 0.0713614 0.209275 55.845 -4.53375e-07 
329 1 0.357168 0.107148 0.20915 55.845 3.18124e-07 
337 1 0.321426 -7.84058e-05 0.209267 55.845 2.52265e-07 
339 1 0.357104 0.0356726 0.209378 55.845 -4.98548e-09 
415 1 0.285725 0.107149 0.126673 55.845 -3.1369e-07 
425 1 0.249972 2.06554e-05 0.12669 55.845 -4.40592e-08 
427 1 0.285738 0.0357062 0.126743 55.845 -4.78483e-07 
428 1 0.28573 0.0713962 0.168043 55.845 -1.91376e-07 
429 1 0.321409 0.071444 0.126778 55.845 -3.3534e-07 
430 1 0.321335 0.107154 0.168136 55.845 1.338e-07 
431 1 0.357064 0.107073 0.126728 55.845 -1.70364e-07 
439 1 0.321409 2.13997e-05 0.126798 55.845 -4.35841e-07 
440 1 0.321483 0.0357355 0.168092 55.845 -1.15477e-07 
441 1 0.35709 0.0357374 0.126741 55.845 -3.31962e-07 
442 1 0.357047 0.071402 0.168223 55.845 4.47564e-08 
517 1 0.285714 0.107143 0.0416667 55.845 2.66039e-07 
527 1 0.25 0 0.0416667 55.845 1.14782e-07 
529 1 0.285714 0.0357143 0.0416667 55.845 -4.08198e-08 
530 1 0.28581 0.0714469 0.0844288 55.845 7.94818e-08 
531 1 0.321429 0.0714286 0.0416667 55.845 3.02209e-07 
532 1 0.321368 0.107189 0.0842168 55.845 3.82403e-07 
533 1 0.357143 0.107143 0.0416667 55.845 3.59731e-07 
603 1 0.357143 0.0714286 0 55.845 1.65887e-07 
541 1 0.321429 0 0.0416667 55.845 2.12134e-07 
542 1 0.321431 0.0357253 0.0844383 55.845 2.07444e-07 
543 1 0.357143 0.0357143 0.0416667 55.845 2.01142e-07 
544 1 0.357101 0.0714574 0.0843676 55.845 5.07175e-07 
602 1 0.321429 0.0357143 0 55.845 -1.55415e-08 
596 1 0.285714 0.0714286 0 55.845 5.61025e-08 
597 1 0.321429 0.107143 0 55.845 -1.46642e-07 
612 1 0.464286 0.0357143 0 55.845 5.6323e-08 
611 1 0.428571 0 0 55.845 -1.1284e-08 
610 1 0.464286 0.107143 0 55.845 -1.90749e-07 
609 1 0.428571 0.0714286 0 55.845 -3.15949e-07 
608 1 0.392857 0.0357143 0 55.845 -2.03144e-07 
341 1 0.392822 0.071395 0.209288 55.845 -8.85056e-10 
343 1 0.428546 0.107176 0.209202 55.845 6.82757e-08 
348 1 0.392822 1.39182e-05 0.209117 55.845 -1.20422e-07 
350 1 0.428583 0.0357919 0.209345 55.845 2.48554e-08 
352 1 0.464278 0.0714534 0.209358 55.845 4.50467e-07 
355 1 0.464296 2.02986e-05 0.209295 55.845 1.52857e-07 
443 1 0.392735 0.0714219 0.126692 55.845 -4.97592e-07 
444 1 0.39283 0.107142 0.168077 55.845 -3.57172e-07 
445 1 0.428495 0.107092 0.126732 55.845 -5.20529e-07 
604 1 0.392857 0.107143 0 55.845 2.02196e-07 
450 1 0.39283 1.03821e-05 0.126759 55.845 -5.33671e-07 
451 1 0.39281 0.0357908 0.168158 55.845 -5.57154e-08 
452 1 0.428512 0.0357119 0.126821 55.845 -3.16297e-07 
453 1 0.428595 0.0714356 0.168107 55.845 7.70881e-08 
454 1 0.464276 0.0714107 0.126746 55.845 7.43119e-08 
455 1 0.464292 0.107192 0.168079 55.845 2.10373e-07 
456 1 0.42861 6.57976e-05 0.168078 55.845 -4.60473e-07 
457 1 0.464289 -1.97636e-05 0.126778 55.845 -3.84703e-07 
458 1 0.464247 0.0357857 0.168296 55.845 1.24994e-07 
545 1 0.392857 0.0714286 0.0416667 55.845 1.24829e-07 
546 1 0.392835 0.10719 0.0842966 55.845 -1.91738e-07 
547 1 0.428571 0.107143 0.0416667 55.845 1.08135e-07 
552 1 0.392857 0 0.0416667 55.845 4.33956e-08 
553 1 0.392829 0.0356972 0.0845235 55.845 2.67031e-07 
554 1 0.428571 0.0357143 0.0416667 55.845 8.15529e-08 
555 1 0.428574 0.0713696 0.0843667 55.845 1.00253e-07 
556 1 0.464286 0.0714286 0.0416667 55.845 1.72278e-07 
557 1 0.464284 0.107174 0.08442 55.845 3.86336e-07 
558 1 0.428626 -1.27023e-05 0.0844582 55.845 1.29064e-07 
559 1 0.464286 0 0.0416667 55.845 4.48449e-07 
560 1 0.464259 0.0357294 0.0844701 55.845 7.9081e-08 
255 1 2.70422e-05 0.178555 0.209273 55.845 2.49649e-07 
257 1 0.0356881 0.21435 0.209198 55.845 9.29805e-08 
261 1 0.035726 0.142867 0.209197 55.845 3.98435e-07 
263 1 0.0714912 0.178587 0.209169 55.845 -4.22388e-07 
265 1 0.107116 0.214329 0.209242 55.845 -1.94031e-07 
273 1 0.107223 0.142802 0.209091 55.845 6.17658e-08 
357 1 1.78747e-05 0.178533 0.126747 55.845 5.78246e-08 
358 1 -1.1157e-05 0.214297 0.168174 55.845 -1.33441e-07 
359 1 0.035705 0.214319 0.126737 55.845 -9.46558e-08 
360 1 0.0356998 0.250042 0.16809 55.845 1.7218e-07 
362 1 -3.63932e-05 0.142859 0.168163 55.845 3.58343e-07 
363 1 0.035797 0.142784 0.126759 55.845 2.16056e-07 
364 1 0.0357074 0.178602 0.168038 55.845 3.01313e-07 
365 1 0.0713927 0.178619 0.126808 55.845 -3.49568e-07 
366 1 0.0714565 0.214342 0.168131 55.845 -4.00472e-07 
367 1 0.107162 0.214259 0.126737 55.845 -4.70581e-07 
368 1 0.107075 0.249956 0.168073 55.845 -2.51454e-07 
374 1 0.0715255 0.142898 0.16807 55.845 -8.69815e-08 
375 1 0.107266 0.14286 0.126692 55.845 -3.94452e-07 
376 1 0.107207 0.178567 0.168076 55.845 -2.18086e-07 
459 1 0 0.178571 0.0416667 55.845 -2.259e-07 
460 1 -3.92453e-05 0.214217 0.0844259 55.845 -1.74902e-07 
461 1 0.0357143 0.214286 0.0416667 55.845 4.94571e-07 
462 1 0.0357498 0.250008 0.0845055 55.845 1.46634e-07 
464 1 5.24467e-05 0.14278 0.0845813 55.845 4.97543e-07 
465 1 0.0357143 0.142857 0.0416667 55.845 -3.88069e-08 
466 1 0.0357433 0.17854 0.0845237 55.845 4.39123e-07 
467 1 0.0714286 0.178571 0.0416667 55.845 3.68091e-07 
468 1 0.0714422 0.21427 0.0843471 55.845 1.6396e-07 
469 1 0.107143 0.214286 0.0416667 55.845 2.526e-07 
470 1 0.107183 0.249975 0.0844161 55.845 -4.23214e-08 
476 1 0.0715509 0.142893 0.084469 55.845 -1.83647e-08 
477 1 0.107143 0.142857 0.0416667 55.845 3.10917e-07 
478 1 0.107114 0.178591 0.0844668 55.845 1.29874e-07 
561 1 0 0.214286 0 55.845 2.28158e-08 
562 1 0.0357143 0.25 0 55.845 3.04072e-07 
563 1 0 0.142857 0 55.845 -5.88667e-07 
564 1 0.0357143 0.178571 0 55.845 -3.38239e-07 
565 1 0.0714286 0.214286 0 55.845 3.97382e-07 
566 1 0.107143 0.25 0 55.845 2.61997e-07 
569 1 0.0714286 0.142857 0 55.845 2.22734e-07 
570 1 0.107143 0.178571 0 55.845 -1.45617e-07 
275 1 0.142922 0.178571 0.209129 55.845 1.86057e-07 
277 1 0.178462 0.214311 0.209323 55.845 8.76741e-08 
287 1 0.178607 0.142836 0.20929 55.845 4.1455e-08 
289 1 0.214348 0.178648 0.209294 55.845 -9.22702e-08 
291 1 0.249975 0.214336 0.209203 55.845 4.73315e-08 
301 1 0.250065 0.14287 0.209037 55.845 3.16639e-07 
377 1 0.14296 0.178436 0.126758 55.845 4.28257e-07 
378 1 0.142851 0.214259 0.168064 55.845 1.83031e-07 
379 1 0.178567 0.214288 0.126813 55.845 -5.48199e-08 
388 1 0.14289 0.142803 0.168112 55.845 3.97582e-07 
389 1 0.1786 0.142878 0.126792 55.845 1.63343e-07 
390 1 0.178698 0.178634 0.168203 55.845 1.71747e-07 
391 1 0.214309 0.178546 0.126789 55.845 -4.10074e-08 
392 1 0.214252 0.214284 0.168136 55.845 -3.56196e-07 
393 1 0.25006 0.214307 0.126764 55.845 -3.63997e-08 
402 1 0.214307 0.142883 0.168124 55.845 -3.66528e-07 
403 1 0.249969 0.142836 0.126736 55.845 -4.58416e-07 
404 1 0.250017 0.178559 0.168076 55.845 -5.73476e-07 
479 1 0.142857 0.178571 0.0416667 55.845 -1.96191e-07 
480 1 0.142846 0.214236 0.0845131 55.845 1.48687e-07 
481 1 0.178571 0.214286 0.0416667 55.845 7.01009e-08 
490 1 0.142904 0.142853 0.0844256 55.845 2.57857e-07 
491 1 0.178571 0.142857 0.0416667 55.845 5.89369e-08 
492 1 0.178571 0.178572 0.0844333 55.845 1.19278e-07 
493 1 0.214286 0.178571 0.0416667 55.845 3.61383e-07 
494 1 0.214258 0.214277 0.0845856 55.845 7.57879e-08 
495 1 0.25 0.214286 0.0416667 55.845 5.96817e-07 
504 1 0.214339 0.142789 0.0843579 55.845 -2.39691e-07 
505 1 0.25 0.142857 0.0416667 55.845 5.16809e-07 
506 1 0.250008 0.178528 0.0843569 55.845 1.03247e-07 
571 1 0.142857 0.214286 0 55.845 -2.2619e-07 
576 1 0.142857 0.142857 0 55.845 -8.31083e-08 
577 1 0.178571 0.178571 0 55.845 -7.55438e-07 
578 1 0.214286 0.214286 0 55.845 1.35511e-07 
583 1 0.214286 0.142857 0 55.845 3.51603e-07 
584 1 0.25 0.178571 0 55.845 2.91991e-07 
303 1 0.285628 0.178614 0.209148 55.845 -2.2516e-07 
305 1 0.321411 0.214329 0.209237 55.845 -2.04808e-07 
315 1 0.321395 0.142947 0.209222 55.845 2.38414e-07 
317 1 0.357165 0.178597 0.209174 55.845 2.66183e-07 
405 1 0.285729 0.178518 0.126629 55.845 -1.07423e-07 
406 1 0.285648 0.214276 0.168064 55.845 -2.65277e-07 
407 1 0.321361 0.214253 0.126741 55.845 -1.97969e-07 
416 1 0.285679 0.142889 0.168078 55.845 -2.9393e-07 
417 1 0.321431 0.142899 0.126613 55.845 1.35397e-07 
418 1 0.321365 0.178616 0.168186 55.845 -8.2912e-09 
419 1 0.357157 0.178547 0.126675 55.845 -8.94926e-08 
420 1 0.357077 0.21434 0.16818 55.845 1.41374e-07 
432 1 0.357089 0.142812 0.168163 55.845 2.04088e-07 
507 1 0.285714 0.178571 0.0416667 55.845 1.98732e-07 
508 1 0.28572 0.214327 0.0843326 55.845 1.73498e-07 
509 1 0.321429 0.214286 0.0416667 55.845 -4.01453e-09 
518 1 0.285728 0.142786 0.0843105 55.845 -7.10498e-08 
519 1 0.321429 0.142857 0.0416667 55.845 8.74752e-09 
520 1 0.321439 0.178552 0.0843858 55.845 1.1301e-07 
521 1 0.357143 0.178571 0.0416667 55.845 3.29955e-07 
522 1 0.357085 0.214286 0.084579 55.845 2.36238e-07 
534 1 0.357163 0.142864 0.0843312 55.845 1.4299e-07 
585 1 0.285714 0.214286 0 55.845 -2.14611e-07 
590 1 0.285714 0.142857 0 55.845 -1.76408e-07 
591 1 0.321429 0.178571 0 55.845 -6.27172e-07 
592 1 0.357143 0.214286 0 55.845 9.69269e-08 
598 1 0.357143 0.142857 0 55.845 1.58854e-09 
319 1 0.392875 0.21424 0.209329 55.845 -1.94546e-07 
321 1 0.428567 0.249989 0.209179 55.845 -2.79663e-07 
331 1 0.392844 0.142925 0.209228 55.845 1.17596e-07 
333 1 0.428616 0.178576 0.209351 55.845 -1.76565e-07 
335 1 0.464233 0.214289 0.20916 55.845 1.19831e-07 
345 1 0.464321 0.142897 0.209324 55.845 4.51485e-07 
606 1 0.464286 0.178571 0 55.845 -9.82004e-08 
421 1 0.392768 0.214259 0.126776 55.845 -2.55207e-07 
422 1 0.392815 0.249986 0.168183 55.845 2.70405e-07 
423 1 0.428571 0.250019 0.126795 55.845 -1.91933e-07 
433 1 0.392815 0.142818 0.126671 55.845 -9.50265e-07 
434 1 0.392807 0.178505 0.168213 55.845 -3.10125e-07 
435 1 0.428494 0.178562 0.126768 55.845 -5.14278e-07 
436 1 0.428482 0.214282 0.168101 55.845 -1.18864e-08 
437 1 0.464236 0.21424 0.126734 55.845 -2.34157e-07 
605 1 0.428571 0.142857 0 55.845 3.28882e-07 
446 1 0.428548 0.142845 0.16804 55.845 -3.73825e-07 
447 1 0.464285 0.142847 0.126683 55.845 2.27732e-07 
448 1 0.464247 0.178533 0.168088 55.845 3.95898e-07 
523 1 0.392857 0.214286 0.0416667 55.845 2.80229e-07 
524 1 0.39296 0.250036 0.0844208 55.845 1.43454e-07 
525 1 0.428571 0.25 0.0416667 55.845 -1.4878e-07 
535 1 0.392857 0.142857 0.0416667 55.845 3.5859e-07 
536 1 0.392811 0.178594 0.0844043 55.845 -1.08182e-07 
537 1 0.428571 0.178571 0.0416667 55.845 2.66068e-07 
538 1 0.42855 0.214322 0.0844092 55.845 -1.08223e-07 
539 1 0.464286 0.214286 0.0416667 55.845 -5.43207e-08 
548 1 0.428528 0.142792 0.0845184 55.845 -2.19166e-07 
549 1 0.464286 0.142857 0.0416667 55.845 3.52858e-07 
550 1 0.464237 0.178559 0.0844585 55.845 9.67306e-08 
593 1 0.392857 0.25 0 55.845 -1.53075e-07 
599 1 0.392857 0.178571 0 55.845 4.8059e-07 
600 1 0.428571 0.214286 0 55.845 -3.35561e-07 
3 1 5.53251e-06 0.107128 0.461129 55.845 -2.36273e-07 
7 1 1.13985e-05 0.0356658 0.460998 55.845 1.60988e-07 
8 1 0.0357036 0.0713588 0.461026 55.845 2.15188e-07 
9 1 0.0713885 0.107186 0.461177 55.845 -3.20741e-07 
13 1 0.0358198 2.9718e-05 0.461187 55.845 -2.71972e-07 
14 1 0.0714034 0.0356746 0.461098 55.845 -3.68436e-07 
15 1 0.107149 0.0713092 0.461237 55.845 -4.59674e-07 
20 1 0.107175 -8.9268e-05 0.461228 55.845 -2.22623e-07 
55 1 1.8683e-05 0.107078 0.377099 55.845 3.80973e-07 
63 1 3.34604e-05 0.0357864 0.377096 55.845 -5.79249e-08 
64 1 -1.33147e-05 0.0714381 0.418712 55.845 1.84682e-08 
65 1 0.0357264 0.0714595 0.377173 55.845 1.97421e-07 
66 1 0.0357736 0.107161 0.418764 55.845 1.43981e-07 
67 1 0.071452 0.107109 0.37719 55.845 -1.78173e-07 
74 1 8.27749e-06 2.00359e-05 0.418783 55.845 -6.76178e-07 
75 1 0.0357089 -8.53971e-06 0.377031 55.845 3.89865e-07 
76 1 0.0356958 0.0356085 0.418618 55.845 -1.55022e-07 
77 1 0.0714545 0.0356975 0.377155 55.845 3.11418e-08 
78 1 0.0714705 0.0713669 0.418759 55.845 -8.63783e-07 
79 1 0.107117 0.0714683 0.37717 55.845 -2.35803e-07 
80 1 0.107086 0.107128 0.418948 55.845 -7.65636e-07 
88 1 0.0714184 -7.36991e-05 0.418784 55.845 2.12864e-08 
89 1 0.10716 -5.6352e-05 0.377111 55.845 5.9908e-07 
90 1 0.10718 0.0356566 0.418863 55.845 -5.40292e-07 
157 1 -2.8649e-06 0.107097 0.293306 55.845 8.93985e-08 
165 1 3.3171e-05 0.0357537 0.293124 55.845 5.94903e-08 
166 1 6.07027e-05 0.0714541 0.335514 55.845 1.35391e-07 
167 1 0.0357524 0.0713914 0.293223 55.845 2.04398e-07 
168 1 0.0356987 0.107203 0.335489 55.845 3.27822e-07 
169 1 0.0714983 0.107132 0.293172 55.845 5.57039e-07 
176 1 0.000111072 3.68194e-05 0.335446 55.845 1.44294e-07 
177 1 0.0357494 1.3172e-05 0.293193 55.845 3.30834e-07 
178 1 0.0357007 0.0357228 0.335456 55.845 9.98756e-08 
179 1 0.0714574 0.0356834 0.293177 55.845 -2.51017e-07 
180 1 0.071474 0.0714591 0.335507 55.845 -2.69234e-07 
181 1 0.107165 0.0713476 0.293219 55.845 2.77213e-07 
182 1 0.10712 0.107143 0.335609 55.845 4.05149e-08 
190 1 0.0715403 -4.03993e-05 0.33574 55.845 5.1686e-07 
191 1 0.107158 -4.40055e-05 0.293355 55.845 2.90694e-08 
192 1 0.107101 0.0356992 0.335723 55.845 2.23362e-07 
268 1 5.70236e-05 0.0713316 0.250774 55.845 -1.02439e-07 
270 1 0.0357135 0.107118 0.250809 55.845 2.50022e-07 
278 1 4.61716e-05 -3.31658e-05 0.250755 55.845 4.55021e-07 
280 1 0.0357542 0.0356662 0.250599 55.845 -1.7472e-08 
282 1 0.0714603 0.0714488 0.250738 55.845 5.56005e-08 
284 1 0.107157 0.107114 0.250739 55.845 4.41644e-07 
292 1 0.0714502 -3.09881e-05 0.25074 55.845 -7.15024e-07 
294 1 0.107166 0.035689 0.250827 55.845 -2.9347e-07 
16 1 0.142813 0.107164 0.461091 55.845 1.38865e-07 
21 1 0.142833 0.0357124 0.461189 55.845 -3.29598e-07 
22 1 0.17853 0.0713862 0.461209 55.845 -1.63954e-07 
23 1 0.214257 0.107169 0.461179 55.845 -4.34804e-07 
27 1 0.17854 1.29804e-05 0.461192 55.845 -4.70467e-07 
28 1 0.214251 0.0357515 0.461201 55.845 -1.31295e-07 
29 1 0.249986 0.0714507 0.461087 55.845 -4.30567e-07 
81 1 0.142853 0.107166 0.377122 55.845 3.18908e-07 
91 1 0.142868 0.0356244 0.37717 55.845 2.85007e-07 
92 1 0.1428 0.0713715 0.418729 55.845 -3.71088e-07 
93 1 0.178565 0.0714986 0.377273 55.845 1.80477e-07 
94 1 0.178525 0.107147 0.418865 55.845 -1.06772e-07 
95 1 0.214252 0.107147 0.377174 55.845 -1.26765e-07 
102 1 0.142787 5.22662e-05 0.418903 55.845 -3.41783e-07 
103 1 0.178592 -3.25969e-05 0.37713 55.845 -2.08296e-07 
104 1 0.178592 0.0356711 0.418793 55.845 -4.42284e-07 
105 1 0.21429 0.035759 0.377111 55.845 -7.3884e-08 
106 1 0.214225 0.0714006 0.418784 55.845 -4.29546e-07 
107 1 0.249936 0.0714698 0.377143 55.845 -1.30067e-07 
108 1 0.25001 0.107211 0.418874 55.845 -6.85023e-07 
118 1 0.214254 3.73594e-05 0.41884 55.845 -1.40982e-07 
120 1 0.25001 0.0357319 0.418823 55.845 -1.68774e-07 
183 1 0.142851 0.1071 0.293143 55.845 2.5262e-07 
193 1 0.142846 0.0356881 0.293291 55.845 1.07132e-07 
194 1 0.14286 0.0714559 0.335602 55.845 2.83782e-07 
195 1 0.178589 0.0714111 0.293174 55.845 -2.58907e-07 
196 1 0.178553 0.107137 0.335752 55.845 1.88226e-07 
197 1 0.214329 0.107128 0.293185 55.845 4.25396e-07 
204 1 0.142809 -5.32381e-05 0.335717 55.845 5.51172e-07 
205 1 0.178566 -5.5601e-05 0.29329 55.845 -5.10033e-08 
206 1 0.178584 0.0357541 0.335678 55.845 -3.72397e-09 
207 1 0.214306 0.0357049 0.29328 55.845 -4.93192e-07 
208 1 0.2143 0.0714397 0.335627 55.845 -1.58008e-08 
209 1 0.250015 0.0714883 0.29319 55.845 8.0202e-08 
210 1 0.249929 0.107163 0.335673 55.845 2.02121e-07 
220 1 0.214303 2.76466e-05 0.335646 55.845 2.78522e-07 
222 1 0.250076 0.0356011 0.335659 55.845 -1.16452e-08 
296 1 0.142837 0.0714221 0.250763 55.845 1.01171e-08 
298 1 0.178559 0.107098 0.250875 55.845 -2.33158e-07 
306 1 0.142857 -3.84765e-05 0.250852 55.845 9.97711e-08 
308 1 0.178588 0.0356493 0.250791 55.845 -5.12574e-07 
310 1 0.214327 0.071373 0.250797 55.845 -1.96919e-07 
312 1 0.250012 0.107101 0.250661 55.845 5.51837e-07 
322 1 0.214309 -2.97574e-05 0.250905 55.845 -8.57079e-08 
324 1 0.250023 0.0357308 0.250699 55.845 -2.98869e-07 
30 1 0.285766 0.107158 0.461181 55.845 -2.04688e-07 
35 1 0.250018 6.15741e-05 0.461047 55.845 -3.23104e-08 
36 1 0.285737 0.0357438 0.461071 55.845 -4.4772e-07 
37 1 0.321425 0.0714335 0.460994 55.845 -1.77543e-08 
38 1 0.357057 0.107205 0.46105 55.845 -2.67355e-08 
42 1 0.321413 7.51359e-05 0.461109 55.845 -2.38437e-07 
43 1 0.357153 0.0357389 0.461055 55.845 -1.16582e-07 
109 1 0.285681 0.107246 0.377046 55.845 -3.0735e-07 
119 1 0.250003 -6.64966e-05 0.377221 55.845 2.36586e-07 
121 1 0.285687 0.035744 0.3772 55.845 2.51246e-07 
122 1 0.285652 0.0715577 0.418797 55.845 -2.73299e-07 
123 1 0.321389 0.0714718 0.377126 55.845 5.96516e-07 
124 1 0.321391 0.107151 0.418793 55.845 -8.64247e-08 
125 1 0.357059 0.107186 0.377134 55.845 9.80319e-08 
133 1 0.321408 7.22124e-05 0.377108 55.845 -1.47839e-07 
134 1 0.321398 0.035751 0.418764 55.845 -2.00639e-07 
135 1 0.357141 0.0357567 0.377126 55.845 4.18086e-07 
136 1 0.357154 0.071479 0.418699 55.845 -2.5116e-07 
211 1 0.285606 0.107233 0.293267 55.845 1.23242e-08 
221 1 0.250014 -3.52966e-05 0.293149 55.845 1.11535e-08 
223 1 0.285739 0.0357453 0.293247 55.845 -2.02973e-07 
224 1 0.285691 0.0714815 0.335728 55.845 -1.56138e-08 
225 1 0.321379 0.0714634 0.293115 55.845 4.96198e-08 
226 1 0.321392 0.107198 0.335508 55.845 -1.75951e-07 
227 1 0.357062 0.107182 0.293297 55.845 4.77828e-07 
235 1 0.321386 -4.47284e-05 0.293162 55.845 1.43333e-07 
236 1 0.321358 0.035763 0.33558 55.845 1.44935e-07 
237 1 0.357084 0.0356507 0.293263 55.845 4.19934e-07 
238 1 0.356991 0.0715051 0.335574 55.845 9.60885e-08 
326 1 0.285707 0.0714448 0.250832 55.845 -3.86459e-07 
328 1 0.321439 0.107119 0.250728 55.845 -1.67344e-07 
338 1 0.321433 0.0356822 0.250861 55.845 -2.0625e-07 
340 1 0.357066 0.0714647 0.250861 55.845 2.80355e-08 
44 1 0.39288 0.0714858 0.461153 55.845 -2.08698e-07 
45 1 0.428545 0.107106 0.461147 55.845 -3.01511e-07 
47 1 0.392777 -5.44342e-05 0.461119 55.845 -4.57895e-07 
48 1 0.428521 0.035682 0.461184 55.845 -4.87416e-08 
49 1 0.464186 0.0714541 0.46116 55.845 3.21596e-07 
50 1 0.464228 -5.6848e-05 0.46123 55.845 -2.63562e-07 
137 1 0.392839 0.0714467 0.377189 55.845 -1.52294e-07 
138 1 0.392901 0.107146 0.41877 55.845 -8.57905e-07 
139 1 0.428571 0.107192 0.377139 55.845 -1.41429e-07 
144 1 0.392821 3.43418e-05 0.377084 55.845 -6.08691e-08 
145 1 0.392771 0.0357496 0.41885 55.845 -6.37784e-07 
146 1 0.428587 0.0356945 0.377111 55.845 2.86158e-07 
147 1 0.428545 0.0713806 0.418733 55.845 -2.41373e-07 
148 1 0.464271 0.0714843 0.377077 55.845 4.64109e-07 
149 1 0.464217 0.107127 0.418872 55.845 -6.72437e-09 
150 1 0.42858 -1.21034e-05 0.418747 55.845 -5.11363e-07 
151 1 0.464246 1.6343e-05 0.377128 55.845 2.61804e-07 
152 1 0.464275 0.0356876 0.418795 55.845 1.74548e-07 
239 1 0.39277 0.0714809 0.293321 55.845 8.99675e-08 
240 1 0.392834 0.10721 0.335581 55.845 -1.95484e-07 
241 1 0.428499 0.10717 0.293299 55.845 6.1298e-08 
246 1 0.392879 6.96166e-05 0.293377 55.845 1.73716e-07 
247 1 0.392888 0.0358007 0.335535 55.845 -3.76259e-07 
248 1 0.428565 0.0356357 0.293233 55.845 1.90989e-07 
249 1 0.428538 0.0714644 0.335543 55.845 -3.46428e-07 
250 1 0.464279 0.0714103 0.293192 55.845 1.96875e-07 
251 1 0.464279 0.107159 0.335459 55.845 8.09473e-08 
252 1 0.428575 -1.88242e-05 0.335529 55.845 -5.98758e-08 
253 1 0.464313 7.43719e-06 0.293186 55.845 4.87891e-07 
254 1 0.464249 0.0357471 0.335606 55.845 3.46818e-08 
342 1 0.392836 0.107183 0.250789 55.845 2.54919e-07 
349 1 0.392818 0.0356876 0.250892 55.845 -2.05837e-07 
351 1 0.428511 0.0715432 0.250819 55.845 -1.62452e-07 
353 1 0.464213 0.107158 0.250732 55.845 -7.29156e-08 
354 1 0.428573 2.32274e-05 0.250771 55.845 -4.16169e-07 
356 1 0.464278 0.0357249 0.250811 55.845 1.08223e-07 
1 1 2.27341e-05 0.178552 0.461102 55.845 -8.87971e-08 
2 1 0.0356528 0.214323 0.461104 55.845 -1.12507e-07 
4 1 0.0356759 0.14293 0.461215 55.845 3.59413e-08 
5 1 0.0714188 0.178574 0.461139 55.845 -4.0878e-07 
6 1 0.107157 0.214299 0.461065 55.845 -5.37061e-07 
10 1 0.10711 0.142891 0.461255 55.845 -2.64681e-07 
51 1 -7.56456e-05 0.17855 0.377291 55.845 -9.53646e-08 
52 1 -9.52794e-05 0.214353 0.41879 55.845 -2.99389e-07 
53 1 0.0356993 0.214321 0.377277 55.845 5.48242e-08 
54 1 0.03566 0.250045 0.418816 55.845 -1.73778e-07 
56 1 -5.50136e-05 0.142802 0.418737 55.845 -1.32185e-08 
57 1 0.035702 0.142821 0.377167 55.845 4.05058e-07 
58 1 0.0356792 0.178527 0.41888 55.845 1.61257e-07 
59 1 0.0714737 0.178544 0.377152 55.845 -1.06825e-08 
60 1 0.0714578 0.214274 0.418878 55.845 -3.826e-07 
61 1 0.107162 0.214292 0.377133 55.845 4.7161e-08 
62 1 0.107133 0.25003 0.418824 55.845 -3.641e-07 
68 1 0.0714117 0.142888 0.418871 55.845 -4.01094e-07 
69 1 0.107083 0.14291 0.377185 55.845 -2.77781e-08 
70 1 0.107088 0.178584 0.418831 55.845 -4.01924e-07 
153 1 1.29636e-05 0.178555 0.293306 55.845 -5.12323e-08 
154 1 -2.01115e-05 0.214261 0.335608 55.845 -1.3825e-07 
155 1 0.0357258 0.21423 0.293204 55.845 1.07227e-07 
156 1 0.0356575 0.249914 0.335547 55.845 1.74971e-07 
158 1 7.58177e-05 0.142798 0.335641 55.845 8.97415e-08 
159 1 0.0356955 0.142854 0.293269 55.845 2.73882e-07 
160 1 0.0357273 0.178571 0.335781 55.845 5.29448e-08 
161 1 0.0714119 0.17857 0.293131 55.845 -1.21096e-07 
162 1 0.0714336 0.214248 0.335638 55.845 8.44037e-08 
163 1 0.107192 0.214293 0.29323 55.845 2.4481e-07 
164 1 0.107159 0.250003 0.335569 55.845 -1.23772e-07 
170 1 0.0714385 0.142836 0.335495 55.845 1.16369e-07 
171 1 0.107194 0.142792 0.293101 55.845 2.05769e-07 
172 1 0.107081 0.178537 0.33543 55.845 2.02773e-07 
256 1 -4.37011e-06 0.214236 0.250719 55.845 1.59372e-08 
258 1 0.0357158 0.249971 0.250814 55.845 3.12404e-07 
260 1 1.67241e-05 0.142794 0.250844 55.845 -2.45087e-07 
262 1 0.0357274 0.178607 0.250731 55.845 -2.29517e-07 
264 1 0.0714193 0.214309 0.250669 55.845 -2.842e-07 
266 1 0.107123 0.249952 0.250778 55.845 1.01919e-07 
272 1 0.0714073 0.142855 0.250728 55.845 3.82518e-08 
274 1 0.107105 0.178498 0.250736 55.845 -3.02961e-07 
11 1 0.142816 0.178599 0.461107 55.845 -2.16315e-07 
12 1 0.178525 0.214289 0.461062 55.845 -2.67799e-07 
17 1 0.178503 0.142912 0.461125 55.845 -7.74752e-08 
18 1 0.21425 0.178635 0.461097 55.845 -1.23591e-07 
19 1 0.249956 0.214244 0.461092 55.845 -2.21291e-07 
24 1 0.250006 0.142796 0.461087 55.845 -2.73091e-07 
71 1 0.142742 0.178512 0.377056 55.845 1.68914e-07 
72 1 0.142854 0.214349 0.418592 55.845 -3.56615e-08 
73 1 0.178535 0.214224 0.377102 55.845 -1.47995e-07 
82 1 0.142813 0.142872 0.4188 55.845 -5.99897e-08 
83 1 0.178565 0.142878 0.377112 55.845 1.38948e-08 
84 1 0.178511 0.178594 0.418774 55.845 -1.63089e-07 
85 1 0.214286 0.178657 0.377092 55.845 -1.0695e-07 
86 1 0.214281 0.214338 0.418767 55.845 -3.60894e-07 
87 1 0.249988 0.214333 0.377017 55.845 3.16722e-07 
96 1 0.214235 0.142879 0.418874 55.845 -2.93803e-07 
97 1 0.249977 0.142898 0.377214 55.845 -2.16412e-07 
98 1 0.25003 0.178586 0.41874 55.845 6.44021e-11 
173 1 0.142774 0.17862 0.2931 55.845 -1.32093e-07 
174 1 0.142769 0.214259 0.335497 55.845 3.84511e-07 
175 1 0.178543 0.214289 0.293203 55.845 -9.95743e-08 
184 1 0.142749 0.142766 0.335609 55.845 4.55137e-09 
185 1 0.178562 0.142827 0.293213 55.845 -4.10128e-07 
186 1 0.178466 0.178534 0.335549 55.845 -2.69004e-07 
187 1 0.214307 0.178505 0.293324 55.845 -1.70723e-07 
188 1 0.214208 0.214269 0.335449 55.845 -4.99848e-08 
189 1 0.250011 0.214279 0.293151 55.845 3.80401e-07 
198 1 0.214289 0.142904 0.335678 55.845 1.46006e-07 
199 1 0.250024 0.142813 0.293174 55.845 5.52825e-07 
200 1 0.25001 0.178574 0.335677 55.845 4.6113e-07 
276 1 0.142845 0.214238 0.250832 55.845 2.05448e-07 
286 1 0.142865 0.142815 0.250828 55.845 -2.3147e-07 
288 1 0.17863 0.178629 0.250843 55.845 -5.53623e-07 
290 1 0.214322 0.214289 0.250884 55.845 -3.22606e-07 
300 1 0.214337 0.142797 0.250828 55.845 3.39019e-08 
302 1 0.249931 0.178586 0.250872 55.845 -1.13766e-07 
25 1 0.285637 0.178544 0.461172 55.845 -3.66438e-07 
26 1 0.32136 0.214257 0.461101 55.845 -5.07269e-07 
31 1 0.321438 0.142937 0.461006 55.845 9.23639e-08 
32 1 0.357111 0.17862 0.461074 55.845 -1.98838e-07 
99 1 0.285763 0.178635 0.377179 55.845 -4.21683e-08 
100 1 0.285707 0.214357 0.418865 55.845 -1.70458e-07 
101 1 0.321458 0.214312 0.377087 55.845 -2.4076e-08 
110 1 0.285746 0.142936 0.418808 55.845 -4.08024e-07 
111 1 0.321455 0.14292 0.377092 55.845 -2.72173e-07 
112 1 0.321374 0.17858 0.41874 55.845 -1.85121e-07 
113 1 0.357115 0.178593 0.377126 55.845 1.14181e-07 
114 1 0.357062 0.214389 0.418846 55.845 -1.56439e-07 
126 1 0.357195 0.142921 0.418816 55.845 -1.96558e-07 
201 1 0.285691 0.178602 0.293109 55.845 -8.7398e-08 
202 1 0.285708 0.214403 0.335542 55.845 2.69473e-07 
203 1 0.321433 0.214289 0.293228 55.845 -1.35329e-07 
212 1 0.285637 0.142966 0.335486 55.845 -2.80869e-07 
213 1 0.321304 0.14288 0.293158 55.845 -1.52674e-07 
214 1 0.321433 0.178527 0.335596 55.845 -5.39952e-08 
215 1 0.357077 0.178578 0.293189 55.845 2.55997e-07 