ITEM: TIMESTEP
3400
ITEM: NUMBER OF ATOMS
5880
ITEM: BOX BOUNDS pp pp ff
-27.9162 27.9162
-27.9162 27.9162
0 34.092
ITEM: ATOMS id type xs ys zs mass q 
259 1 3.90645e-05 0.10721 0.209536 55.845 -1.66299e-07 
267 1 -2.74557e-05 0.0356474 0.209616 55.845 5.21007e-08 
269 1 0.0357235 0.071456 0.209517 55.845 1.46414e-09 
271 1 0.0714583 0.10717 0.209473 55.845 -1.87973e-07 
279 1 0.0356029 -9.85393e-06 0.209568 55.845 -1.23445e-07 
281 1 0.0714294 0.0356886 0.2096 55.845 -2.86411e-08 
283 1 0.107154 0.0713938 0.209642 55.845 9.63256e-08 
293 1 0.107097 -1.82131e-05 0.209578 55.845 -8.43246e-08 
361 1 2.83426e-05 0.107226 0.125913 55.845 -1.11864e-07 
369 1 -2.43084e-05 0.0356547 0.125836 55.845 -8.58847e-08 
370 1 -4.1493e-05 0.071456 0.167209 55.845 1.69943e-07 
371 1 0.0357148 0.0713789 0.125814 55.845 -1.62704e-07 
372 1 0.0356882 0.107136 0.167191 55.845 1.255e-07 
373 1 0.071402 0.107123 0.125819 55.845 -1.81599e-07 
380 1 -1.3933e-05 -8.59652e-05 0.167217 55.845 1.18364e-07 
381 1 0.0357776 5.21089e-05 0.125835 55.845 -7.63363e-08 
382 1 0.0356733 0.0357383 0.167304 55.845 2.83974e-07 
383 1 0.0714604 0.035708 0.125977 55.845 -2.09591e-08 
384 1 0.0714915 0.0714312 0.167281 55.845 7.85206e-08 
385 1 0.10715 0.0713669 0.125917 55.845 -2.298e-07 
386 1 0.107184 0.107091 0.167297 55.845 4.82559e-08 
394 1 0.0714043 -4.07945e-05 0.167364 55.845 1.72217e-07 
395 1 0.107157 -6.9077e-06 0.125893 55.845 -1.29873e-07 
396 1 0.107099 0.0356602 0.167313 55.845 2.52637e-07 
463 1 0 0.107143 0.0416667 55.845 3.2561e-10 
471 1 0 0.0357143 0.0416667 55.845 -6.56165e-08 
472 1 -4.72169e-05 0.0713798 0.084314 55.845 9.53708e-08 
473 1 0.0357143 0.0714286 0.0416667 55.845 4.25671e-08 
474 1 0.0357423 0.10712 0.0843063 55.845 1.22431e-07 
475 1 0.0714286 0.107143 0.0416667 55.845 1.54631e-07 
482 1 4.40103e-05 -2.61333e-05 0.0842383 55.845 1.37285e-07 
483 1 0.0357143 0 0.0416667 55.845 1.78806e-07 
484 1 0.0357638 0.0356993 0.0844286 55.845 1.62376e-07 
485 1 0.0714286 0.0357143 0.0416667 55.845 -8.36095e-08 
486 1 0.0714295 0.0713728 0.0843678 55.845 4.89172e-08 
487 1 0.107143 0.0714286 0.0416667 55.845 -1.74947e-07 
488 1 0.107167 0.107073 0.0842892 55.845 1.07997e-07 
496 1 0.0713787 -6.37262e-05 0.0842744 55.845 2.99191e-07 
497 1 0.107143 0 0.0416667 55.845 3.07065e-08 
498 1 0.107115 0.0357042 0.0842133 55.845 5.66703e-08 
567 1 0 0.0714286 0 55.845 -2.3646e-07 
568 1 0.0357143 0.107143 0 55.845 1.30409e-07 
572 1 0 0 0 55.845 -8.21576e-08 
573 1 0.0357143 0.0357143 0 55.845 -1.06594e-07 
574 1 0.0714286 0.0714286 0 55.845 -1.58253e-07 
575 1 0.107143 0.107143 0 55.845 -8.11253e-08 
579 1 0.0714286 0 0 55.845 -5.38764e-09 
580 1 0.107143 0.0357143 0 55.845 -3.18826e-07 
285 1 0.142848 0.107125 0.20972 55.845 -1.60185e-07 
295 1 0.142744 0.0356058 0.209632 55.845 -4.62315e-08 
297 1 0.178533 0.0714236 0.209617 55.845 -8.17084e-08 
299 1 0.21436 0.107094 0.2095 55.845 2.52692e-08 
307 1 0.178514 1.21644e-05 0.209597 55.845 -1.30482e-07 
309 1 0.214244 0.0356896 0.209586 55.845 -4.39787e-08 
311 1 0.250107 0.0714665 0.209487 55.845 1.56641e-08 
387 1 0.142852 0.107073 0.125894 55.845 -7.14433e-08 
397 1 0.142815 0.0356077 0.125721 55.845 -1.05583e-07 
398 1 0.142784 0.0713596 0.167277 55.845 3.8821e-08 
399 1 0.178557 0.0713911 0.125827 55.845 -1.48196e-07 
400 1 0.178615 0.107225 0.167275 55.845 1.00408e-07 
401 1 0.214326 0.10719 0.125821 55.845 2.21652e-08 
408 1 0.142924 -6.48623e-05 0.167307 55.845 1.36612e-07 
409 1 0.178621 5.35305e-05 0.125825 55.845 -1.89953e-08 
410 1 0.178562 0.0357017 0.167092 55.845 1.58604e-07 
411 1 0.214274 0.0356908 0.1259 55.845 2.43555e-08 
412 1 0.214287 0.0713843 0.167152 55.845 9.63612e-08 
413 1 0.250034 0.0714162 0.125771 55.845 6.53141e-08 
414 1 0.250044 0.107142 0.167204 55.845 2.24528e-07 
424 1 0.21426 -3.64925e-05 0.167283 55.845 3.15746e-07 
426 1 0.250004 0.0357145 0.167303 55.845 1.38306e-07 
489 1 0.142857 0.107143 0.0416667 55.845 1.72206e-07 
499 1 0.142857 0.0357143 0.0416667 55.845 -1.77122e-08 
500 1 0.142889 0.0714051 0.0841582 55.845 7.40159e-08 
501 1 0.178571 0.0714286 0.0416667 55.845 2.469e-08 
502 1 0.178584 0.10714 0.0843297 55.845 2.23843e-07 
503 1 0.214286 0.107143 0.0416667 55.845 -5.95119e-08 
510 1 0.142929 -5.59373e-05 0.084315 55.845 2.14958e-07 
511 1 0.178571 0 0.0416667 55.845 1.37306e-07 
512 1 0.178574 0.0357706 0.0842349 55.845 1.03817e-07 
513 1 0.214286 0.0357143 0.0416667 55.845 4.41981e-09 
514 1 0.214297 0.0714364 0.0841622 55.845 2.66183e-08 
515 1 0.25 0.0714286 0.0416667 55.845 -5.73723e-08 
516 1 0.249996 0.107219 0.0843148 55.845 4.31909e-08 
526 1 0.214313 6.86066e-06 0.0842752 55.845 1.56627e-07 
528 1 0.249982 0.0357324 0.0842431 55.845 -1.1007e-08 
581 1 0.142857 0.0714286 0 55.845 -1.99789e-07 
582 1 0.178571 0.107143 0 55.845 1.77302e-08 
586 1 0.142857 0 0 55.845 -1.13918e-07 
587 1 0.178571 0.0357143 0 55.845 -1.41564e-07 
588 1 0.214286 0.0714286 0 55.845 -3.58963e-07 
589 1 0.25 0.107143 0 55.845 -2.60497e-07 
594 1 0.214286 0 0 55.845 -1.5236e-07 
595 1 0.25 0.0357143 0 55.845 -1.74992e-07 
313 1 0.285762 0.107221 0.209488 55.845 8.04342e-08 
323 1 0.249961 -9.64768e-06 0.209657 55.845 1.57655e-07 
325 1 0.285705 0.0356815 0.209675 55.845 -1.08038e-07 
327 1 0.321494 0.0714376 0.209593 55.845 -1.16021e-07 
329 1 0.357207 0.10721 0.209612 55.845 3.24902e-07 
337 1 0.321437 4.60958e-06 0.209683 55.845 1.47731e-07 
339 1 0.357102 0.035695 0.209479 55.845 -1.50535e-08 
415 1 0.285718 0.107116 0.125779 55.845 8.08226e-08 
425 1 0.249999 2.19883e-05 0.125773 55.845 4.14722e-08 
427 1 0.285717 0.0356879 0.125907 55.845 -4.94484e-08 
428 1 0.285758 0.0714014 0.167247 55.845 -6.89293e-08 
429 1 0.321461 0.0713805 0.125719 55.845 -1.68789e-08 
430 1 0.32149 0.107129 0.167289 55.845 2.40708e-07 
431 1 0.357158 0.107121 0.125872 55.845 -1.43885e-08 
439 1 0.321413 2.75685e-06 0.125768 55.845 7.24935e-08 
440 1 0.321433 0.0357293 0.167151 55.845 6.83626e-08 
441 1 0.357165 0.0357213 0.125731 55.845 1.3634e-07 
442 1 0.357166 0.0714873 0.167242 55.845 1.61289e-07 
517 1 0.285714 0.107143 0.0416667 55.845 4.8017e-08 
527 1 0.25 0 0.0416667 55.845 5.33269e-08 
529 1 0.285714 0.0357143 0.0416667 55.845 2.02713e-07 
530 1 0.285683 0.071414 0.0842516 55.845 1.15275e-07 
531 1 0.321429 0.0714286 0.0416667 55.845 5.85705e-08 
532 1 0.321471 0.107104 0.0842877 55.845 9.26246e-08 
533 1 0.357143 0.107143 0.0416667 55.845 -1.61776e-07 
603 1 0.357143 0.0714286 0 55.845 -1.95616e-07 
541 1 0.321429 0 0.0416667 55.845 1.13375e-07 
542 1 0.321406 0.0356518 0.0842212 55.845 3.33721e-08 
543 1 0.357143 0.0357143 0.0416667 55.845 1.98737e-07 
544 1 0.357169 0.0714497 0.0842022 55.845 1.29476e-07 
602 1 0.321429 0.0357143 0 55.845 -7.18236e-08 
596 1 0.285714 0.0714286 0 55.845 -1.89247e-07 
597 1 0.321429 0.107143 0 55.845 -3.17592e-07 
612 1 0.464286 0.0357143 0 55.845 -1.9921e-07 
611 1 0.428571 0 0 55.845 -1.96395e-07 
610 1 0.464286 0.107143 0 55.845 -1.36672e-07 
609 1 0.428571 0.0714286 0 55.845 7.76532e-08 
608 1 0.392857 0.0357143 0 55.845 -4.69132e-08 
341 1 0.392936 0.0714625 0.209703 55.845 -6.97397e-08 
343 1 0.428521 0.107162 0.209601 55.845 -1.50501e-08 
348 1 0.392852 2.49394e-05 0.209681 55.845 6.141e-08 
350 1 0.428532 0.0357139 0.209656 55.845 -1.86903e-07 
352 1 0.464289 0.0714251 0.209645 55.845 1.15327e-07 
355 1 0.464298 4.04091e-05 0.209567 55.845 7.54732e-08 
443 1 0.392897 0.0714062 0.125802 55.845 -1.06988e-07 
444 1 0.392865 0.107098 0.167405 55.845 2.45322e-07 
445 1 0.428558 0.107193 0.125949 55.845 -2.01599e-07 
604 1 0.392857 0.107143 0 55.845 -1.03253e-07 
450 1 0.392914 1.73018e-05 0.125831 55.845 2.78432e-07 
451 1 0.392853 0.0357474 0.167318 55.845 1.64926e-07 
452 1 0.428519 0.0357438 0.125729 55.845 -1.03248e-07 
453 1 0.428682 0.0714323 0.167372 55.845 -3.04178e-08 
454 1 0.46427 0.0714553 0.125858 55.845 -1.14404e-07 
455 1 0.464328 0.10715 0.167345 55.845 2.70599e-07 
456 1 0.428577 -2.43622e-05 0.167274 55.845 1.67899e-07 
457 1 0.464238 2.44968e-05 0.125768 55.845 3.46676e-08 
458 1 0.464276 0.0357085 0.167141 55.845 1.71633e-07 
545 1 0.392857 0.0714286 0.0416667 55.845 9.64623e-08 
546 1 0.392911 0.107099 0.0843709 55.845 1.85846e-07 
547 1 0.428571 0.107143 0.0416667 55.845 -6.93912e-08 
552 1 0.392857 0 0.0416667 55.845 7.48551e-08 
553 1 0.3929 0.0357367 0.0842588 55.845 8.88748e-09 
554 1 0.428571 0.0357143 0.0416667 55.845 1.54495e-07 
555 1 0.42858 0.0714909 0.0842814 55.845 3.49873e-08 
556 1 0.464286 0.0714286 0.0416667 55.845 3.09416e-09 
557 1 0.464256 0.107084 0.0842164 55.845 1.7134e-07 
558 1 0.42851 2.97663e-05 0.0842639 55.845 3.81151e-08 
559 1 0.464286 0 0.0416667 55.845 1.41482e-07 
560 1 0.464265 0.0357366 0.0842225 55.845 -6.66637e-08 
255 1 -3.6441e-05 0.178579 0.20952 55.845 -1.01238e-07 
257 1 0.0357457 0.214228 0.209665 55.845 -5.54416e-08 
261 1 0.035676 0.142824 0.209463 55.845 2.91346e-08 
263 1 0.0713838 0.17849 0.209625 55.845 -2.37756e-08 
265 1 0.107113 0.214249 0.209696 55.845 -5.2787e-08 
273 1 0.107172 0.142866 0.209613 55.845 -6.3494e-08 
357 1 -4.75716e-05 0.178596 0.125819 55.845 2.26313e-08 
358 1 -7.71826e-06 0.214323 0.167357 55.845 7.90877e-08 
359 1 0.0358173 0.214252 0.125814 55.845 -9.4095e-08 
360 1 0.0356414 0.249889 0.167355 55.845 1.72489e-07 
362 1 2.56366e-05 0.142911 0.167206 55.845 1.40361e-07 
363 1 0.0356556 0.142834 0.125736 55.845 -1.38543e-08 
364 1 0.0357486 0.178581 0.167176 55.845 2.66829e-07 
365 1 0.0713951 0.178657 0.125861 55.845 -5.59889e-08 
366 1 0.0714205 0.214281 0.167329 55.845 1.41281e-08 
367 1 0.107197 0.214331 0.125712 55.845 -1.3136e-07 
368 1 0.107176 0.249978 0.16737 55.845 4.368e-10 
374 1 0.0714732 0.142853 0.167105 55.845 1.26483e-07 
375 1 0.107178 0.142813 0.125735 55.845 1.29619e-08 
376 1 0.107173 0.178555 0.167199 55.845 2.40744e-07 
459 1 0 0.178571 0.0416667 55.845 -9.73115e-08 
460 1 5.98022e-05 0.214346 0.0843523 55.845 5.15129e-08 
461 1 0.0357143 0.214286 0.0416667 55.845 3.75037e-08 
462 1 0.0357277 0.249998 0.084231 55.845 1.06751e-07 
464 1 -2.34081e-05 0.142861 0.0842535 55.845 3.15292e-08 
465 1 0.0357143 0.142857 0.0416667 55.845 1.85461e-07 
466 1 0.0357482 0.178686 0.08422 55.845 -1.87615e-08 
467 1 0.0714286 0.178571 0.0416667 55.845 -1.06214e-07 
468 1 0.071497 0.214325 0.0842078 55.845 1.01415e-07 
469 1 0.107143 0.214286 0.0416667 55.845 -2.10938e-08 
470 1 0.107147 0.250052 0.0841973 55.845 -2.06411e-09 
476 1 0.0714253 0.142854 0.0843051 55.845 1.20961e-07 
477 1 0.107143 0.142857 0.0416667 55.845 -3.05124e-08 
478 1 0.107204 0.178624 0.0842069 55.845 -1.0652e-08 
561 1 0 0.214286 0 55.845 -2.91946e-07 
562 1 0.0357143 0.25 0 55.845 -6.72589e-08 
563 1 0 0.142857 0 55.845 -1.7679e-07 
564 1 0.0357143 0.178571 0 55.845 -1.13743e-07 
565 1 0.0714286 0.214286 0 55.845 -8.80246e-08 
566 1 0.107143 0.25 0 55.845 -1.51658e-08 
569 1 0.0714286 0.142857 0 55.845 -1.47644e-07 
570 1 0.107143 0.178571 0 55.845 -4.02828e-07 
275 1 0.142818 0.178574 0.209628 55.845 -2.01614e-08 
277 1 0.178648 0.214253 0.209466 55.845 5.92039e-08 
287 1 0.178596 0.142876 0.209684 55.845 -1.73728e-08 
289 1 0.214306 0.178581 0.209569 55.845 6.01809e-08 
291 1 0.249938 0.214326 0.209604 55.845 1.06244e-07 
301 1 0.250048 0.142906 0.209484 55.845 9.34646e-08 
377 1 0.142851 0.178582 0.125813 55.845 -6.71723e-09 
378 1 0.142821 0.214325 0.167216 55.845 1.08891e-07 
379 1 0.17862 0.214326 0.125906 55.845 -1.49584e-07 
388 1 0.142879 0.142827 0.167246 55.845 2.57155e-07 
389 1 0.178508 0.142837 0.125803 55.845 -1.32778e-07 
390 1 0.178568 0.178515 0.167146 55.845 2.70112e-07 
391 1 0.214228 0.178579 0.125887 55.845 -2.07703e-07 
392 1 0.21434 0.214276 0.16729 55.845 1.1658e-07 
393 1 0.249954 0.214358 0.125889 55.845 2.3056e-08 
402 1 0.214235 0.142885 0.167315 55.845 1.95998e-07 
403 1 0.249961 0.142918 0.125788 55.845 -3.21047e-08 
404 1 0.250018 0.178643 0.167337 55.845 3.35589e-08 
479 1 0.142857 0.178571 0.0416667 55.845 -1.20376e-07 
480 1 0.142937 0.214267 0.0842021 55.845 1.85768e-07 
481 1 0.178571 0.214286 0.0416667 55.845 -1.6041e-08 
490 1 0.142881 0.142842 0.0842443 55.845 2.68708e-07 
491 1 0.178571 0.142857 0.0416667 55.845 1.71889e-07 
492 1 0.178546 0.178584 0.0842141 55.845 4.37041e-08 
493 1 0.214286 0.178571 0.0416667 55.845 -1.19761e-07 
494 1 0.214212 0.214289 0.0841916 55.845 1.28997e-08 
495 1 0.25 0.214286 0.0416667 55.845 -3.57849e-08 
504 1 0.214227 0.142789 0.0841789 55.845 -5.82419e-08 
505 1 0.25 0.142857 0.0416667 55.845 8.66041e-08 
506 1 0.249984 0.178555 0.0843054 55.845 -2.14877e-08 
571 1 0.142857 0.214286 0 55.845 -1.09956e-07 
576 1 0.142857 0.142857 0 55.845 -1.92321e-07 
577 1 0.178571 0.178571 0 55.845 -1.93535e-07 
578 1 0.214286 0.214286 0 55.845 -1.94703e-07 
583 1 0.214286 0.142857 0 55.845 -1.09198e-07 
584 1 0.25 0.178571 0 55.845 -9.23455e-08 
303 1 0.28573 0.178638 0.209554 55.845 -1.56591e-07 
305 1 0.321452 0.214329 0.209513 55.845 5.97775e-08 
315 1 0.321451 0.142911 0.209491 55.845 -7.96487e-08 
317 1 0.357151 0.17858 0.209364 55.845 -1.05941e-07 
405 1 0.285667 0.178589 0.125728 55.845 -7.90715e-08 
406 1 0.285677 0.214387 0.167256 55.845 1.8208e-07 
407 1 0.321412 0.214318 0.125761 55.845 -2.02832e-08 
416 1 0.285764 0.142829 0.167043 55.845 6.01979e-08 
417 1 0.321474 0.142837 0.125742 55.845 -7.92947e-08 
418 1 0.321408 0.1786 0.167192 55.845 -7.69566e-08 
419 1 0.357051 0.178621 0.125783 55.845 -1.95187e-07 
420 1 0.357181 0.21433 0.167133 55.845 1.28233e-07 
432 1 0.357144 0.142879 0.167305 55.845 1.82282e-07 
507 1 0.285714 0.178571 0.0416667 55.845 1.46931e-07 
508 1 0.285683 0.214368 0.0843529 55.845 1.37359e-07 
509 1 0.321429 0.214286 0.0416667 55.845 -1.28358e-07 
518 1 0.285662 0.142837 0.0842491 55.845 -7.63265e-09 
519 1 0.321429 0.142857 0.0416667 55.845 4.8371e-08 
520 1 0.321418 0.178571 0.0843106 55.845 -2.75476e-08 
521 1 0.357143 0.178571 0.0416667 55.845 1.15482e-07 
522 1 0.357138 0.214358 0.0841929 55.845 1.95046e-08 
534 1 0.357144 0.142784 0.0843697 55.845 8.8822e-08 
585 1 0.285714 0.214286 0 55.845 -3.34472e-07 
590 1 0.285714 0.142857 0 55.845 -3.79016e-08 
591 1 0.321429 0.178571 0 55.845 -1.13116e-07 
592 1 0.357143 0.214286 0 55.845 -1.89992e-07 
598 1 0.357143 0.142857 0 55.845 -1.98346e-07 
319 1 0.392818 0.214241 0.209615 55.845 -1.14841e-08 
321 1 0.428617 0.250024 0.209623 55.845 1.02452e-07 
331 1 0.392861 0.142926 0.209629 55.845 -1.37687e-07 
333 1 0.428615 0.178595 0.209713 55.845 -2.21052e-07 
335 1 0.464289 0.214307 0.209515 55.845 3.25632e-08 
345 1 0.464242 0.142918 0.209599 55.845 9.26508e-08 
606 1 0.464286 0.178571 0 55.845 -2.3365e-07 
421 1 0.392882 0.214306 0.125799 55.845 -9.44698e-08 
422 1 0.392915 0.249982 0.167283 55.845 2.3006e-07 
423 1 0.428558 0.249951 0.125662 55.845 -1.5532e-07 
433 1 0.392805 0.142768 0.125903 55.845 -1.51919e-07 
434 1 0.392921 0.178555 0.167283 55.845 -2.41565e-08 
435 1 0.428626 0.178551 0.125734 55.845 -9.19935e-08 
436 1 0.42856 0.214329 0.167268 55.845 7.66964e-08 
437 1 0.464279 0.21429 0.125648 55.845 -2.5109e-08 
605 1 0.428571 0.142857 0 55.845 -2.54789e-07 
446 1 0.428548 0.142865 0.167297 55.845 2.49787e-07 
447 1 0.464302 0.142851 0.125774 55.845 9.1228e-08 
448 1 0.464348 0.178522 0.167274 55.845 1.60072e-07 
523 1 0.392857 0.214286 0.0416667 55.845 -3.96731e-11 
524 1 0.392882 0.250057 0.0843931 55.845 -5.65089e-08 
525 1 0.428571 0.25 0.0416667 55.845 -1.23869e-07 
535 1 0.392857 0.142857 0.0416667 55.845 8.14534e-09 
536 1 0.392851 0.178485 0.0843229 55.845 1.41839e-07 
537 1 0.428571 0.178571 0.0416667 55.845 4.00887e-08 
538 1 0.428541 0.214312 0.0842257 55.845 2.65954e-08 
539 1 0.464286 0.214286 0.0416667 55.845 3.65179e-08 
548 1 0.428515 0.142876 0.0842007 55.845 2.03951e-07 
549 1 0.464286 0.142857 0.0416667 55.845 -3.47314e-08 
550 1 0.464321 0.178565 0.0843403 55.845 1.71148e-07 
593 1 0.392857 0.25 0 55.845 -2.53438e-07 
599 1 0.392857 0.178571 0 55.845 -6.3944e-09 
600 1 0.428571 0.214286 0 55.845 -1.7966e-07 
3 1 -3.96058e-05 0.107165 0.461276 55.845 9.87094e-08 
7 1 -6.72193e-05 0.035748 0.461303 55.845 -2.98942e-08 
8 1 0.0355883 0.0714206 0.461333 55.845 1.50723e-07 
9 1 0.0714461 0.107125 0.46135 55.845 1.15192e-07 
13 1 0.0356939 2.44032e-05 0.461293 55.845 -5.15061e-09 
14 1 0.0714471 0.0356528 0.461227 55.845 4.23053e-08 
15 1 0.10723 0.0713979 0.461327 55.845 1.98113e-07 
20 1 0.107185 -1.14933e-05 0.461252 55.845 1.07312e-07 
55 1 4.6653e-06 0.107113 0.377217 55.845 1.46268e-07 
63 1 -2.92339e-05 0.0356995 0.377249 55.845 2.52658e-08 
64 1 -2.06419e-05 0.0714668 0.419119 55.845 -2.35463e-07 
65 1 0.0357319 0.071481 0.377378 55.845 1.13818e-07 
66 1 0.0357112 0.107201 0.419161 55.845 -3.97847e-08 
67 1 0.0715019 0.107136 0.377268 55.845 3.63695e-07 
74 1 -4.19789e-05 5.24851e-05 0.419083 55.845 -2.36787e-07 
75 1 0.0356978 -1.60844e-05 0.377281 55.845 3.52258e-07 
76 1 0.0356485 0.0357172 0.419133 55.845 -2.52755e-07 
77 1 0.0714661 0.0357338 0.377366 55.845 1.56215e-07 
78 1 0.0714143 0.0714338 0.419065 55.845 -3.18211e-07 
79 1 0.1072 0.071381 0.37731 55.845 -2.97764e-08 
80 1 0.107232 0.107133 0.419139 55.845 -2.9451e-07 
88 1 0.0714513 1.21309e-05 0.418969 55.845 1.55952e-08 
89 1 0.107188 -6.40355e-05 0.377211 55.845 2.18955e-07 
90 1 0.107149 0.0356484 0.419113 55.845 -4.75453e-07 
157 1 0.000117733 0.107143 0.293804 55.845 4.85193e-08 
165 1 7.96378e-05 0.0357606 0.293863 55.845 2.4102e-07 
166 1 5.34763e-06 0.071363 0.335589 55.845 -2.41837e-07 
167 1 0.0357742 0.0713717 0.293799 55.845 1.81726e-07 
168 1 0.0357406 0.107112 0.335599 55.845 -6.45324e-08 
169 1 0.0714537 0.107093 0.293921 55.845 2.70765e-07 
176 1 6.61252e-05 7.1132e-05 0.335564 55.845 -2.0264e-07 
177 1 0.035767 -2.43495e-05 0.293942 55.845 2.70966e-07 
178 1 0.0357693 0.0357287 0.335781 55.845 -1.89528e-07 
179 1 0.0714522 0.0356588 0.293975 55.845 2.36963e-07 
180 1 0.0713806 0.0713738 0.335715 55.845 -3.43571e-07 
181 1 0.107176 0.0714352 0.29391 55.845 1.78812e-07 
182 1 0.107185 0.107151 0.335651 55.845 -1.11519e-07 
190 1 0.0714516 -9.11172e-05 0.335725 55.845 -1.73303e-07 
191 1 0.107143 -5.03983e-05 0.293883 55.845 1.55527e-07 
192 1 0.107217 0.0356758 0.335657 55.845 -3.09713e-07 
268 1 -2.91706e-05 0.0714602 0.2518 55.845 3.45671e-10 
270 1 0.0357965 0.1071 0.251914 55.845 -1.1937e-07 
278 1 3.40707e-05 -3.89103e-05 0.251895 55.845 6.59935e-08 
280 1 0.0357416 0.0357123 0.251932 55.845 -2.63539e-08 
282 1 0.0714611 0.0714019 0.251825 55.845 3.4676e-08 
284 1 0.107164 0.107165 0.251822 55.845 -7.15534e-08 
292 1 0.0714063 -3.55804e-05 0.251863 55.845 -1.10591e-07 
294 1 0.107138 0.0357404 0.251916 55.845 7.4763e-08 
16 1 0.142873 0.107181 0.461426 55.845 1.92641e-07 
21 1 0.142937 0.0356784 0.461311 55.845 3.01125e-08 
22 1 0.178625 0.0714282 0.461387 55.845 5.00704e-08 
23 1 0.214282 0.107178 0.461345 55.845 7.47532e-08 
27 1 0.178592 -8.37189e-06 0.46138 55.845 7.46169e-08 
28 1 0.214309 0.0357909 0.461295 55.845 6.57999e-08 
29 1 0.250037 0.0714378 0.461345 55.845 -9.34565e-08 
81 1 0.142829 0.107097 0.377238 55.845 1.57067e-07 
91 1 0.142965 0.0356784 0.377303 55.845 -1.37364e-07 
92 1 0.142883 0.0714879 0.419004 55.845 -3.97027e-07 
93 1 0.178638 0.0713466 0.377193 55.845 1.59995e-07 
94 1 0.178576 0.107069 0.419026 55.845 -9.13833e-08 
95 1 0.214304 0.107096 0.377271 55.845 6.73774e-08 
102 1 0.142962 7.98161e-06 0.419008 55.845 -1.17297e-07 
103 1 0.178631 -5.44278e-05 0.377178 55.845 2.63966e-07 
104 1 0.17865 0.0357005 0.419017 55.845 -2.67006e-07 
105 1 0.214373 0.0357214 0.377221 55.845 1.02874e-07 
106 1 0.214348 0.0714145 0.419 55.845 -1.98312e-07 
107 1 0.249991 0.0714006 0.377252 55.845 1.74807e-07 
108 1 0.25 0.107072 0.418954 55.845 -2.66769e-07 
118 1 0.21429 0.000110139 0.419081 55.845 -1.0373e-07 
120 1 0.249994 0.0357312 0.419012 55.845 -2.78438e-07 
183 1 0.142814 0.107143 0.293881 55.845 2.72894e-07 
193 1 0.142934 0.0356238 0.2939 55.845 3.23094e-07 
194 1 0.142891 0.0713925 0.335678 55.845 -2.95116e-07 
195 1 0.178599 0.0714409 0.293824 55.845 1.3905e-07 
196 1 0.178614 0.107119 0.335574 55.845 -6.97345e-08 
197 1 0.214363 0.107115 0.293796 55.845 2.76901e-07 
204 1 0.142885 -4.23358e-05 0.335625 55.845 -1.21799e-07 
205 1 0.178597 -4.93203e-05 0.293912 55.845 2.24271e-07 
206 1 0.178647 0.0357462 0.335487 55.845 -2.13767e-07 
207 1 0.214371 0.0357448 0.293797 55.845 1.51254e-07 
208 1 0.214292 0.071392 0.33553 55.845 -1.6745e-07 
209 1 0.250028 0.0714652 0.294031 55.845 1.00033e-07 
210 1 0.250007 0.107218 0.335651 55.845 -1.06366e-07 
220 1 0.214345 -1.85396e-05 0.335629 55.845 -2.66488e-07 
222 1 0.250064 0.035687 0.33559 55.845 -2.16854e-07 
296 1 0.142829 0.0713261 0.25192 55.845 4.54622e-08 
298 1 0.178611 0.107058 0.251916 55.845 -1.31444e-07 
306 1 0.142906 -3.53554e-05 0.251903 55.845 -3.43168e-09 
308 1 0.178514 0.0356842 0.251739 55.845 -7.25056e-08 
310 1 0.214335 0.0714123 0.251781 55.845 -5.22856e-09 
312 1 0.250066 0.107167 0.251783 55.845 9.47425e-08 
322 1 0.214302 -7.69318e-05 0.251823 55.845 1.02287e-07 
324 1 0.250008 0.0357709 0.251802 55.845 6.22179e-08 
30 1 0.285704 0.107171 0.461325 55.845 1.10431e-07 
35 1 0.249926 1.14664e-05 0.461219 55.845 5.86966e-08 
36 1 0.285759 0.0357073 0.46135 55.845 1.9959e-07 
37 1 0.321422 0.071441 0.461296 55.845 2.07796e-07 
38 1 0.357172 0.107166 0.461131 55.845 3.90555e-08 
42 1 0.321479 -9.36938e-05 0.461388 55.845 1.57329e-07 
43 1 0.357107 0.035764 0.461274 55.845 2.42744e-07 
109 1 0.285739 0.107169 0.377339 55.845 7.92867e-08 
119 1 0.250003 -7.2575e-05 0.377211 55.845 1.44243e-07 
121 1 0.285691 0.0356855 0.377324 55.845 1.81818e-07 
122 1 0.285707 0.0714327 0.418979 55.845 -1.29557e-07 
123 1 0.321397 0.0713871 0.377205 55.845 3.42314e-07 
124 1 0.321478 0.107122 0.418971 55.845 -1.7618e-07 
125 1 0.357191 0.107143 0.377209 55.845 -8.82709e-08 
133 1 0.321417 -1.83134e-05 0.377368 55.845 1.4898e-07 
134 1 0.321421 0.0356686 0.418925 55.845 -1.56584e-07 
135 1 0.357124 0.0357321 0.377206 55.845 3.50411e-07 
136 1 0.357155 0.0714566 0.418962 55.845 -2.37927e-07 
211 1 0.285723 0.10715 0.29385 55.845 2.52107e-07 
221 1 0.250042 1.8946e-05 0.293863 55.845 2.22227e-07 
223 1 0.285761 0.0357006 0.293767 55.845 3.47671e-07 
224 1 0.285772 0.0714177 0.335649 55.845 -4.4515e-08 
225 1 0.321468 0.0714195 0.293883 55.845 2.92541e-07 
226 1 0.321518 0.107167 0.335555 55.845 -7.59168e-08 
227 1 0.357167 0.107151 0.293881 55.845 3.83493e-07 
235 1 0.321422 -6.67962e-05 0.293816 55.845 3.52699e-07 
236 1 0.321426 0.0356324 0.335599 55.845 -1.87856e-08 
237 1 0.357132 0.0357417 0.293909 55.845 2.56215e-07 
238 1 0.357117 0.0714345 0.335593 55.845 -1.96646e-07 
326 1 0.285736 0.0714532 0.251945 55.845 -1.35054e-07 
328 1 0.321436 0.107205 0.251829 55.845 -8.31368e-09 
338 1 0.321436 0.0356865 0.251808 55.845 -7.77916e-09 
340 1 0.357141 0.0714736 0.251791 55.845 4.75973e-08 
44 1 0.392793 0.071416 0.461326 55.845 2.07172e-07 
45 1 0.428533 0.107107 0.461264 55.845 2.84461e-07 
47 1 0.392919 1.4756e-06 0.461347 55.845 2.29438e-08 
48 1 0.428609 0.0356649 0.461305 55.845 2.61324e-07 
49 1 0.464331 0.0714093 0.461343 55.845 1.94825e-07 
50 1 0.464288 -2.17826e-05 0.461343 55.845 1.21162e-07 
137 1 0.392922 0.0713357 0.377231 55.845 3.29131e-07 
138 1 0.392909 0.107104 0.418913 55.845 -3.26746e-07 
139 1 0.428667 0.107098 0.377125 55.845 3.54078e-07 
144 1 0.392901 -1.84149e-05 0.37722 55.845 1.25091e-07 
145 1 0.39286 0.035628 0.419068 55.845 -2.35543e-07 
146 1 0.428596 0.035659 0.377151 55.845 3.79521e-07 
147 1 0.428617 0.0714603 0.419069 55.845 -2.37105e-07 
148 1 0.464297 0.0714709 0.377294 55.845 2.39474e-07 
149 1 0.464298 0.107156 0.419073 55.845 -2.15004e-07 
150 1 0.428631 -2.39182e-05 0.419067 55.845 -3.52919e-07 
151 1 0.464329 4.98581e-05 0.377183 55.845 2.30309e-07 
152 1 0.46433 0.0356785 0.419103 55.845 -1.89765e-07 
239 1 0.392814 0.0714826 0.293926 55.845 2.58038e-07 
240 1 0.392881 0.107114 0.335604 55.845 -1.81931e-07 
241 1 0.428623 0.107083 0.293927 55.845 2.76058e-07 
246 1 0.392764 2.29895e-05 0.293781 55.845 2.11961e-07 
247 1 0.392851 0.0357303 0.335603 55.845 -1.48e-07 
248 1 0.428528 0.0356864 0.293777 55.845 1.53613e-07 
249 1 0.428645 0.0714005 0.335581 55.845 -1.9599e-07 
250 1 0.464309 0.0713591 0.293905 55.845 2.40101e-07 
251 1 0.464361 0.107201 0.335535 55.845 -2.41042e-07 
252 1 0.428603 -2.5879e-05 0.335462 55.845 -5.36956e-08 
253 1 0.464277 -4.72108e-05 0.293787 55.845 2.16878e-07 
254 1 0.464308 0.0357318 0.335431 55.845 -3.07732e-07 
342 1 0.392846 0.107184 0.251878 55.845 8.77706e-08 
349 1 0.392785 0.0357794 0.251861 55.845 5.20261e-08 
351 1 0.428533 0.071443 0.251992 55.845 -2.37105e-08 
353 1 0.464282 0.107123 0.251891 55.845 1.98388e-08 
354 1 0.428616 -8.18949e-05 0.251832 55.845 1.19853e-07 
356 1 0.464339 0.0356772 0.25185 55.845 2.95764e-08 
1 1 -1.62725e-05 0.178529 0.461258 55.845 -1.14854e-07 
2 1 0.0356471 0.214264 0.461335 55.845 -5.37862e-08 
4 1 0.035737 0.142804 0.461387 55.845 6.2894e-08 
5 1 0.0714341 0.178479 0.461424 55.845 -1.02175e-07 
6 1 0.10711 0.214224 0.461285 55.845 4.34842e-08 
10 1 0.107238 0.142856 0.461531 55.845 2.02073e-07 
51 1 -2.20338e-05 0.178566 0.377254 55.845 8.61655e-08 
52 1 -2.33082e-05 0.214231 0.419033 55.845 -1.58883e-07 
53 1 0.0357401 0.214253 0.377483 55.845 1.02968e-08 
54 1 0.0356965 0.249967 0.419184 55.845 -2.35975e-07 
56 1 3.85777e-05 0.142834 0.419107 55.845 -2.70568e-07 
57 1 0.0357482 0.142785 0.377259 55.845 1.93071e-07 
58 1 0.0357733 0.178469 0.419011 55.845 -2.36363e-07 
59 1 0.0714791 0.178581 0.377285 55.845 8.42127e-08 
60 1 0.0713966 0.214209 0.419192 55.845 -2.0587e-07 
61 1 0.107151 0.214271 0.37729 55.845 1.43193e-08 
62 1 0.107127 0.250023 0.419046 55.845 -2.00423e-08 
68 1 0.0714673 0.142829 0.419082 55.845 -2.8679e-07 
69 1 0.107167 0.14283 0.377413 55.845 2.22614e-07 
70 1 0.107126 0.178577 0.419133 55.845 -3.87045e-07 
153 1 -1.43742e-05 0.17849 0.293899 55.845 9.39204e-08 
154 1 2.25125e-05 0.21424 0.335731 55.845 -1.54498e-07 
155 1 0.0356888 0.21421 0.293976 55.845 1.30928e-07 
156 1 0.0356774 0.249942 0.335666 55.845 -7.35669e-08 
158 1 -2.39248e-05 0.142887 0.33558 55.845 -1.25462e-07 
159 1 0.0357939 0.142848 0.293937 55.845 2.15913e-07 
160 1 0.0357657 0.178599 0.335767 55.845 -1.11513e-07 
161 1 0.0714255 0.178525 0.293928 55.845 2.19403e-07 
162 1 0.0713882 0.214228 0.335796 55.845 -1.60157e-07 
163 1 0.107137 0.214218 0.293944 55.845 1.76315e-07 
164 1 0.1071 0.249901 0.335664 55.845 1.78478e-08 
170 1 0.0714325 0.142801 0.335736 55.845 -7.32593e-08 
171 1 0.107149 0.142839 0.294119 55.845 1.75082e-07 
172 1 0.107114 0.178588 0.335816 55.845 -1.25606e-07 
256 1 -2.87577e-05 0.214257 0.251842 55.845 -5.37748e-08 
258 1 0.035688 0.249923 0.251876 55.845 -4.41266e-08 
260 1 -2.61573e-05 0.14283 0.251913 55.845 1.69849e-07 
262 1 0.0356534 0.178539 0.251777 55.845 9.28977e-08 
264 1 0.0713908 0.214245 0.251873 55.845 6.75229e-08 
266 1 0.10713 0.249944 0.251992 55.845 -6.9235e-09 
272 1 0.0713873 0.142757 0.251952 55.845 1.00285e-07 
274 1 0.107139 0.178585 0.251976 55.845 3.38409e-08 
11 1 0.142895 0.178624 0.461333 55.845 -4.15941e-08 
12 1 0.17855 0.214217 0.461321 55.845 1.05882e-07 
17 1 0.178565 0.142787 0.461338 55.845 2.19042e-07 
18 1 0.214238 0.178604 0.461285 55.845 1.38537e-07 
19 1 0.250146 0.214286 0.46136 55.845 4.64334e-08 
24 1 0.250017 0.142792 0.461333 55.845 5.81691e-09 
71 1 0.142803 0.178603 0.377162 55.845 1.25062e-07 
72 1 0.142813 0.214267 0.418941 55.845 -1.20564e-07 
73 1 0.178588 0.214231 0.377256 55.845 1.68266e-07 
82 1 0.142831 0.14288 0.418918 55.845 -1.15699e-07 
83 1 0.178593 0.142822 0.377184 55.845 2.84334e-07 
84 1 0.178567 0.178574 0.418948 55.845 -1.0324e-07 
85 1 0.214282 0.178583 0.377197 55.845 2.62911e-07 
86 1 0.214323 0.214306 0.419078 55.845 -2.20465e-07 
87 1 0.250077 0.214241 0.377254 55.845 2.21798e-07 
96 1 0.214231 0.142997 0.418983 55.845 -1.22121e-07 
97 1 0.250034 0.142832 0.377351 55.845 1.39535e-07 
98 1 0.249975 0.178589 0.419089 55.845 -1.42983e-07 
173 1 0.142834 0.178551 0.293927 55.845 2.46353e-07 
174 1 0.142927 0.214295 0.33567 55.845 -1.04111e-08 
175 1 0.178603 0.214294 0.293862 55.845 3.70914e-07 
184 1 0.14282 0.14285 0.33571 55.845 -1.5348e-07 
185 1 0.178603 0.142794 0.293805 55.845 1.9543e-07 
186 1 0.178577 0.178516 0.335557 55.845 -2.41984e-07 
187 1 0.214317 0.178543 0.293906 55.845 3.18067e-07 
188 1 0.2143 0.214325 0.335646 55.845 -8.26286e-08 
189 1 0.249971 0.21425 0.293887 55.845 2.90884e-07 
198 1 0.214328 0.142822 0.335579 55.845 -1.53696e-07 
199 1 0.250052 0.14288 0.293818 55.845 1.99571e-07 
200 1 0.250057 0.178579 0.335715 55.845 -2.47107e-07 
276 1 0.14287 0.214271 0.251999 55.845 3.52296e-08 
286 1 0.14284 0.142917 0.251841 55.845 -6.01178e-08 
288 1 0.178556 0.178581 0.251876 55.845 7.68164e-09 
290 1 0.214257 0.214313 0.251899 55.845 1.11934e-08 
300 1 0.214296 0.14284 0.251727 55.845 1.59024e-07 
302 1 0.24999 0.178609 0.251916 55.845 -6.48014e-08 
25 1 0.285831 0.178525 0.4613 55.845 6.64486e-08 
26 1 0.321494 0.214253 0.461348 55.845 7.01874e-08 
31 1 0.321407 0.142872 0.461219 55.845 8.66703e-08 
32 1 0.357184 0.178538 0.461331 55.845 -3.62916e-08 
99 1 0.285747 0.178659 0.37719 55.845 3.65945e-07 
100 1 0.285813 0.214296 0.418999 55.845 -3.13801e-07 
101 1 0.321468 0.214317 0.377209 55.845 1.21833e-07 
110 1 0.28571 0.142887 0.418935 55.845 -1.43917e-07 
111 1 0.321413 0.142884 0.377289 55.845 1.6641e-07 
112 1 0.321494 0.178559 0.418943 55.845 -7.49092e-08 
113 1 0.357209 0.178593 0.377153 55.845 2.59699e-07 
114 1 0.357178 0.214277 0.419063 55.845 -2.3155e-07 
126 1 0.357174 0.142927 0.418902 55.845 -2.87279e-07 
201 1 0.285745 0.178564 0.293968 55.845 2.57403e-07 
202 1 0.285696 0.214328 0.335481 55.845 -2.85393e-07 
203 1 0.321522 0.214238 0.293791 55.845 2.5963e-07 
212 1 0.28573 0.142899 0.335672 55.845 -1.55206e-07 
213 1 0.321383 0.142891 0.293873 55.845 3.56769e-07 
214 1 0.32154 0.178607 0.335579 55.845 -1.14681e-07 
215 1 0.357123 0.178567 0.293816 55.845 3.28978e-07 