ITEM: TIMESTEP
6900
ITEM: NUMBER OF ATOMS
5880
ITEM: BOX BOUNDS pp pp ff
-27.9425 27.9425
-27.9425 27.9425
0 34.092
ITEM: ATOMS id type xs ys zs mass q 
259 1 -1.68737e-05 0.10711 0.210346 55.845 1.05067e-08 
267 1 3.71619e-05 0.0357624 0.210132 55.845 8.13648e-08 
269 1 0.0357379 0.0713526 0.210136 55.845 1.08732e-07 
271 1 0.0712669 0.107108 0.210176 55.845 1.45371e-07 
279 1 0.035833 4.52239e-05 0.210299 55.845 3.35349e-07 
281 1 0.0714915 0.0356362 0.210165 55.845 2.06892e-07 
283 1 0.10715 0.0714313 0.210295 55.845 2.08978e-07 
293 1 0.107092 -3.66204e-05 0.210211 55.845 1.02186e-07 
361 1 1.87773e-05 0.107204 0.125498 55.845 -5.93591e-07 
369 1 0.000118832 0.0356022 0.125341 55.845 -4.63765e-07 
370 1 5.17535e-05 0.0714175 0.167842 55.845 -2.27734e-07 
371 1 0.0357986 0.0713974 0.125471 55.845 -3.90476e-07 
372 1 0.035635 0.107063 0.16785 55.845 -1.46481e-07 
373 1 0.0714927 0.107158 0.125619 55.845 -4.78822e-07 
380 1 6.50199e-05 -1.20709e-05 0.167901 55.845 -3.0102e-07 
381 1 0.0357621 -2.24289e-05 0.125499 55.845 -4.56458e-07 
382 1 0.0358288 0.0356363 0.167928 55.845 -2.39467e-07 
383 1 0.0715342 0.0356984 0.125442 55.845 -3.29517e-07 
384 1 0.0714817 0.0714444 0.167882 55.845 1.6866e-09 
385 1 0.107219 0.0713723 0.125608 55.845 -6.40095e-07 
386 1 0.107076 0.107129 0.168008 55.845 7.6432e-08 
394 1 0.0714596 3.6828e-05 0.167785 55.845 -2.20032e-07 
395 1 0.107072 7.36208e-05 0.125372 55.845 -3.17756e-07 
396 1 0.107233 0.0356872 0.167907 55.845 -7.18917e-08 
463 1 0 0.107143 0.0416667 55.845 5.6364e-07 
471 1 0 0.0357143 0.0416667 55.845 2.92729e-07 
472 1 -2.86082e-05 0.0714973 0.0838674 55.845 5.75114e-07 
473 1 0.0357143 0.0714286 0.0416667 55.845 6.04092e-07 
474 1 0.0356988 0.107151 0.0838553 55.845 3.05685e-07 
475 1 0.0714286 0.107143 0.0416667 55.845 3.63809e-07 
482 1 -1.5125e-05 -6.27357e-05 0.0837964 55.845 4.91098e-07 
483 1 0.0357143 0 0.0416667 55.845 2.96919e-08 
484 1 0.0357382 0.0357327 0.0837743 55.845 4.78483e-07 
485 1 0.0714286 0.0357143 0.0416667 55.845 2.44565e-07 
486 1 0.0715036 0.0714281 0.0839336 55.845 4.305e-07 
487 1 0.107143 0.0714286 0.0416667 55.845 9.4819e-08 
488 1 0.107201 0.107099 0.0838454 55.845 5.06013e-07 
496 1 0.071348 2.42261e-05 0.0838489 55.845 5.5526e-07 
497 1 0.107143 0 0.0416667 55.845 1.72944e-07 
498 1 0.107163 0.0357708 0.0839147 55.845 5.73125e-07 
567 1 0 0.0714286 0 55.845 4.6435e-08 
568 1 0.0357143 0.107143 0 55.845 -3.24007e-07 
572 1 0 0 0 55.845 -6.45941e-08 
573 1 0.0357143 0.0357143 0 55.845 -1.16261e-07 
574 1 0.0714286 0.0714286 0 55.845 -3.97132e-07 
575 1 0.107143 0.107143 0 55.845 -3.63565e-07 
579 1 0.0714286 0 0 55.845 1.33295e-07 
580 1 0.107143 0.0357143 0 55.845 -2.79914e-07 
285 1 0.142784 0.107208 0.21029 55.845 2.57171e-09 
295 1 0.142851 0.0356689 0.210267 55.845 1.21308e-07 
297 1 0.178575 0.0714138 0.210276 55.845 2.94967e-07 
299 1 0.214341 0.107237 0.210194 55.845 3.80205e-07 
307 1 0.178582 -5.97953e-05 0.210351 55.845 1.479e-07 
309 1 0.214315 0.0356834 0.210222 55.845 3.61284e-07 
311 1 0.250096 0.0714547 0.210085 55.845 2.66937e-07 
387 1 0.142899 0.107137 0.125591 55.845 -4.84057e-07 
397 1 0.14293 0.0357621 0.125579 55.845 -5.33206e-07 
398 1 0.142929 0.071416 0.168156 55.845 -1.11686e-07 
399 1 0.17866 0.0713725 0.125606 55.845 -3.40404e-07 
400 1 0.178568 0.107079 0.167951 55.845 -2.04505e-07 
401 1 0.214159 0.107188 0.125482 55.845 -1.75103e-07 
408 1 0.142817 3.2758e-06 0.167943 55.845 -1.96436e-07 
409 1 0.178573 3.63341e-05 0.125727 55.845 -2.80311e-07 
410 1 0.178576 0.0356228 0.167877 55.845 -2.19475e-07 
411 1 0.214407 0.0357165 0.125675 55.845 -4.86565e-07 
412 1 0.214318 0.0713902 0.16793 55.845 -2.54756e-07 
413 1 0.249946 0.0713621 0.125536 55.845 -2.87186e-07 
414 1 0.24996 0.107152 0.167826 55.845 -3.37083e-07 
424 1 0.214375 8.16799e-06 0.168093 55.845 -4.22886e-07 
426 1 0.250017 0.0355917 0.16798 55.845 -2.23859e-07 
489 1 0.142857 0.107143 0.0416667 55.845 1.44955e-07 
499 1 0.142857 0.0357143 0.0416667 55.845 2.25632e-08 
500 1 0.14296 0.0714494 0.083942 55.845 5.40564e-07 
501 1 0.178571 0.0714286 0.0416667 55.845 8.9144e-08 
502 1 0.178507 0.107128 0.0838615 55.845 4.69578e-07 
503 1 0.214286 0.107143 0.0416667 55.845 1.08145e-07 
510 1 0.142849 0.0001179 0.0839387 55.845 4.43563e-07 
511 1 0.178571 0 0.0416667 55.845 1.34584e-07 
512 1 0.178676 0.0356698 0.0840396 55.845 4.61573e-07 
513 1 0.214286 0.0357143 0.0416667 55.845 1.63225e-07 
514 1 0.214293 0.0713926 0.0838541 55.845 7.34275e-07 
515 1 0.25 0.0714286 0.0416667 55.845 7.84573e-08 
516 1 0.249927 0.107109 0.0838538 55.845 4.62762e-07 
526 1 0.214239 1.86125e-05 0.084005 55.845 5.46663e-07 
528 1 0.250017 0.0357515 0.0838995 55.845 5.45076e-07 
581 1 0.142857 0.0714286 0 55.845 -4.51925e-07 
582 1 0.178571 0.107143 0 55.845 -1.78764e-07 
586 1 0.142857 0 0 55.845 -4.21817e-08 
587 1 0.178571 0.0357143 0 55.845 -2.95996e-07 
588 1 0.214286 0.0714286 0 55.845 -1.57861e-07 
589 1 0.25 0.107143 0 55.845 -2.95094e-08 
594 1 0.214286 0 0 55.845 -1.85569e-07 
595 1 0.25 0.0357143 0 55.845 -1.49562e-07 
313 1 0.285782 0.107145 0.210261 55.845 3.06164e-07 
323 1 0.25007 -7.10707e-05 0.210305 55.845 2.81568e-07 
325 1 0.285745 0.0356618 0.210292 55.845 1.74097e-07 
327 1 0.321309 0.0714473 0.210279 55.845 4.19335e-07 
329 1 0.35709 0.10715 0.210132 55.845 2.42564e-07 
337 1 0.321462 3.27791e-05 0.210243 55.845 4.55342e-07 
339 1 0.35713 0.0357616 0.210223 55.845 2.00596e-07 
415 1 0.285598 0.107052 0.125407 55.845 -5.6506e-07 
425 1 0.250032 -1.98809e-05 0.125537 55.845 -5.05533e-07 
427 1 0.28569 0.0356942 0.125545 55.845 -5.90447e-07 
428 1 0.285697 0.0713948 0.167873 55.845 -3.03185e-07 
429 1 0.321341 0.0713354 0.12549 55.845 -6.5731e-07 
430 1 0.321318 0.107077 0.167774 55.845 -3.84668e-07 
431 1 0.357041 0.107156 0.125454 55.845 -4.87191e-07 
439 1 0.321414 6.1926e-05 0.125465 55.845 -5.21835e-07 
440 1 0.321413 0.0356679 0.168009 55.845 -3.58131e-07 
441 1 0.357176 0.0357308 0.125681 55.845 -6.11453e-07 
442 1 0.357051 0.0714365 0.167851 55.845 -3.47124e-07 
517 1 0.285714 0.107143 0.0416667 55.845 1.48201e-07 
527 1 0.25 0 0.0416667 55.845 1.98366e-07 
529 1 0.285714 0.0357143 0.0416667 55.845 3.2196e-07 
530 1 0.285711 0.071397 0.083764 55.845 4.72594e-07 
531 1 0.321429 0.0714286 0.0416667 55.845 1.47723e-07 
532 1 0.321351 0.107225 0.084016 55.845 3.61955e-07 
533 1 0.357143 0.107143 0.0416667 55.845 3.94352e-07 
603 1 0.357143 0.0714286 0 55.845 -2.27163e-07 
541 1 0.321429 0 0.0416667 55.845 4.09323e-07 
542 1 0.321409 0.0356676 0.0838235 55.845 3.84667e-07 
543 1 0.357143 0.0357143 0.0416667 55.845 1.9599e-07 
544 1 0.357095 0.0713692 0.0838025 55.845 6.23127e-07 
602 1 0.321429 0.0357143 0 55.845 -1.90052e-07 
596 1 0.285714 0.0714286 0 55.845 -2.66261e-07 
597 1 0.321429 0.107143 0 55.845 -2.04314e-07 
612 1 0.464286 0.0357143 0 55.845 1.79741e-07 
611 1 0.428571 0 0 55.845 1.48597e-07 
610 1 0.464286 0.107143 0 55.845 -5.72671e-08 
609 1 0.428571 0.0714286 0 55.845 -2.51635e-07 
608 1 0.392857 0.0357143 0 55.845 -1.49014e-07 
341 1 0.39275 0.0714615 0.210163 55.845 4.60625e-07 
343 1 0.428505 0.107113 0.210187 55.845 5.22485e-07 
348 1 0.392874 9.48014e-05 0.210201 55.845 2.62235e-07 
350 1 0.428516 0.0357583 0.21025 55.845 4.38668e-07 
352 1 0.464253 0.0713883 0.210234 55.845 6.78641e-07 
355 1 0.464273 -7.23658e-05 0.210203 55.845 5.10701e-07 
443 1 0.392811 0.0714759 0.125592 55.845 -7.42896e-07 
444 1 0.392809 0.107053 0.167879 55.845 -1.95616e-07 
445 1 0.428635 0.107171 0.125453 55.845 -3.30962e-07 
604 1 0.392857 0.107143 0 55.845 -1.61714e-07 
450 1 0.392895 -7.31731e-05 0.125564 55.845 -6.43257e-07 
451 1 0.392863 0.0357307 0.167822 55.845 -2.33149e-07 
452 1 0.42854 0.0357907 0.125472 55.845 -4.5398e-07 
453 1 0.428531 0.0714806 0.167858 55.845 -5.03184e-07 
454 1 0.464227 0.0714285 0.125484 55.845 -3.40845e-07 
455 1 0.464221 0.107221 0.167834 55.845 -7.72577e-07 
456 1 0.428559 9.26621e-05 0.167956 55.845 -6.57124e-07 
457 1 0.464246 0.000119296 0.125538 55.845 -2.75728e-07 
458 1 0.464271 0.0357897 0.167964 55.845 -8.00396e-07 
545 1 0.392857 0.0714286 0.0416667 55.845 1.72841e-07 
546 1 0.392923 0.107044 0.0838969 55.845 4.32689e-07 
547 1 0.428571 0.107143 0.0416667 55.845 7.72358e-08 
552 1 0.392857 0 0.0416667 55.845 1.6421e-07 
553 1 0.392844 0.0356737 0.0839542 55.845 4.63166e-07 
554 1 0.428571 0.0357143 0.0416667 55.845 -5.5928e-09 
555 1 0.428595 0.0714481 0.0838682 55.845 5.60734e-07 
556 1 0.464286 0.0714286 0.0416667 55.845 -1.42643e-07 
557 1 0.464216 0.10716 0.0838872 55.845 4.18085e-07 
558 1 0.428526 -7.7972e-07 0.0837842 55.845 7.19908e-07 
559 1 0.464286 0 0.0416667 55.845 -1.43091e-07 
560 1 0.464327 0.0356764 0.0838466 55.845 6.17039e-07 
255 1 -2.60495e-05 0.178608 0.210181 55.845 2.03989e-07 
257 1 0.0356855 0.214272 0.210285 55.845 -4.77651e-08 
261 1 0.0356978 0.142856 0.210269 55.845 1.16929e-07 
263 1 0.0713503 0.178647 0.210325 55.845 1.84999e-08 
265 1 0.107134 0.214306 0.210261 55.845 -6.66142e-08 
273 1 0.107125 0.142861 0.210183 55.845 -2.64559e-08 
357 1 6.31237e-05 0.178523 0.125465 55.845 -5.42621e-07 
358 1 3.38957e-06 0.214248 0.167857 55.845 -4.66546e-07 
359 1 0.0356985 0.214184 0.125464 55.845 -4.37282e-07 
360 1 0.0356405 0.249955 0.167842 55.845 -2.00781e-07 
362 1 -5.43811e-05 0.142888 0.168033 55.845 -3.04269e-07 
363 1 0.0357497 0.142793 0.125569 55.845 -5.45989e-07 
364 1 0.0356763 0.178594 0.168038 55.845 -2.92671e-07 
365 1 0.0713951 0.178489 0.125628 55.845 -5.47484e-07 
366 1 0.0713946 0.214222 0.167749 55.845 -1.50156e-07 
367 1 0.107111 0.214201 0.125406 55.845 -6.70169e-07 
368 1 0.107171 0.249966 0.167824 55.845 -8.62408e-08 
374 1 0.0713484 0.142815 0.168037 55.845 3.50394e-08 
375 1 0.107065 0.142801 0.125461 55.845 -5.49347e-07 
376 1 0.107068 0.178548 0.167856 55.845 1.12386e-07 
459 1 0 0.178571 0.0416667 55.845 3.92993e-07 
460 1 1.86508e-05 0.214323 0.0838928 55.845 1.16144e-07 
461 1 0.0357143 0.214286 0.0416667 55.845 5.77013e-07 
462 1 0.0357572 0.249976 0.0837953 55.845 3.96665e-07 
464 1 1.19289e-05 0.142837 0.0838394 55.845 2.05723e-07 
465 1 0.0357143 0.142857 0.0416667 55.845 4.46825e-07 
466 1 0.0357068 0.178504 0.083852 55.845 1.71762e-07 
467 1 0.0714286 0.178571 0.0416667 55.845 6.54283e-07 
468 1 0.0714148 0.214308 0.084043 55.845 3.42793e-07 
469 1 0.107143 0.214286 0.0416667 55.845 3.88404e-07 
470 1 0.107189 0.250004 0.0838288 55.845 2.99275e-07 
476 1 0.0714042 0.142885 0.0838532 55.845 3.3393e-07 
477 1 0.107143 0.142857 0.0416667 55.845 4.58417e-07 
478 1 0.107176 0.178463 0.0838168 55.845 5.30185e-07 
561 1 0 0.214286 0 55.845 -1.31044e-07 
562 1 0.0357143 0.25 0 55.845 1.88369e-08 
563 1 0 0.142857 0 55.845 -2.11689e-07 
564 1 0.0357143 0.178571 0 55.845 -4.3483e-07 
565 1 0.0714286 0.214286 0 55.845 -2.22397e-08 
566 1 0.107143 0.25 0 55.845 -1.81904e-07 
569 1 0.0714286 0.142857 0 55.845 -3.88325e-07 
570 1 0.107143 0.178571 0 55.845 -1.78918e-07 
275 1 0.142825 0.178614 0.210301 55.845 -3.43505e-08 
277 1 0.178514 0.214268 0.210257 55.845 1.46533e-07 
287 1 0.178637 0.142851 0.210051 55.845 1.38668e-07 
289 1 0.214277 0.17871 0.210361 55.845 2.65507e-07 
291 1 0.249991 0.214234 0.210283 55.845 2.66122e-07 
301 1 0.250137 0.142827 0.210316 55.845 4.16603e-07 
377 1 0.142731 0.178565 0.125499 55.845 -5.9839e-07 
378 1 0.142848 0.214293 0.167648 55.845 -1.55591e-07 
379 1 0.17868 0.214232 0.125415 55.845 -4.56424e-07 
388 1 0.142842 0.142999 0.167925 55.845 -8.33666e-09 
389 1 0.178537 0.142893 0.125558 55.845 -4.08016e-07 
390 1 0.178492 0.178573 0.167839 55.845 -3.33474e-07 
391 1 0.21426 0.178457 0.125517 55.845 -4.61749e-07 
392 1 0.214349 0.21432 0.167862 55.845 -4.92536e-07 
393 1 0.25012 0.214304 0.125625 55.845 -5.17582e-07 
402 1 0.21429 0.142926 0.167972 55.845 -4.62476e-07 
403 1 0.24994 0.14286 0.125199 55.845 -3.43073e-07 
404 1 0.250029 0.178573 0.167746 55.845 -5.92037e-07 
479 1 0.142857 0.178571 0.0416667 55.845 4.70947e-07 
480 1 0.1429 0.214248 0.0840173 55.845 1.32791e-07 
481 1 0.178571 0.214286 0.0416667 55.845 2.49557e-07 
490 1 0.142795 0.142906 0.0839149 55.845 5.06859e-07 
491 1 0.178571 0.142857 0.0416667 55.845 2.52768e-07 
492 1 0.178572 0.178571 0.0837929 55.845 4.39017e-07 
493 1 0.214286 0.178571 0.0416667 55.845 9.31029e-08 
494 1 0.214278 0.214345 0.0839605 55.845 3.6096e-07 
495 1 0.25 0.214286 0.0416667 55.845 3.0168e-07 
504 1 0.214196 0.142848 0.0838411 55.845 5.4683e-07 
505 1 0.25 0.142857 0.0416667 55.845 -3.48148e-08 
506 1 0.249905 0.178697 0.0838675 55.845 4.73507e-07 
571 1 0.142857 0.214286 0 55.845 -1.17486e-07 
576 1 0.142857 0.142857 0 55.845 -1.73712e-07 
577 1 0.178571 0.178571 0 55.845 -4.21338e-09 
578 1 0.214286 0.214286 0 55.845 8.97898e-08 
583 1 0.214286 0.142857 0 55.845 1.84261e-08 
584 1 0.25 0.178571 0 55.845 1.74613e-07 
303 1 0.285706 0.178544 0.21013 55.845 2.08775e-07 
305 1 0.321455 0.214269 0.210287 55.845 2.1846e-07 
315 1 0.321473 0.14282 0.210111 55.845 3.40957e-07 
317 1 0.357159 0.178534 0.210126 55.845 3.10721e-07 
405 1 0.285694 0.178635 0.125466 55.845 -4.94134e-07 
406 1 0.285663 0.21429 0.167957 55.845 -6.32487e-07 
407 1 0.321437 0.214378 0.125662 55.845 -7.07292e-07 
416 1 0.285649 0.142805 0.16777 55.845 -6.32155e-07 
417 1 0.32131 0.142886 0.125543 55.845 -4.89347e-07 
418 1 0.321367 0.178595 0.167839 55.845 -5.0245e-07 
419 1 0.357171 0.178649 0.125405 55.845 -3.56854e-07 
420 1 0.357187 0.214285 0.167927 55.845 -5.36898e-07 
432 1 0.357107 0.142938 0.167686 55.845 -5.18368e-07 
507 1 0.285714 0.178571 0.0416667 55.845 6.59725e-08 
508 1 0.285758 0.214407 0.0839106 55.845 5.18861e-07 
509 1 0.321429 0.214286 0.0416667 55.845 2.31827e-07 
518 1 0.285706 0.142866 0.0836773 55.845 4.13177e-07 
519 1 0.321429 0.142857 0.0416667 55.845 2.29821e-07 
520 1 0.321392 0.17864 0.0838919 55.845 4.54813e-07 
521 1 0.357143 0.178571 0.0416667 55.845 2.28566e-07 
522 1 0.357146 0.214341 0.0839964 55.845 4.42094e-07 
534 1 0.357113 0.14278 0.0839379 55.845 5.95222e-07 
585 1 0.285714 0.214286 0 55.845 1.19429e-07 
590 1 0.285714 0.142857 0 55.845 -1.01855e-07 
591 1 0.321429 0.178571 0 55.845 -9.28224e-09 
592 1 0.357143 0.214286 0 55.845 -1.27047e-07 
598 1 0.357143 0.142857 0 55.845 -4.90625e-08 
319 1 0.393043 0.214302 0.210167 55.845 4.66052e-07 
321 1 0.428548 0.250012 0.210313 55.845 6.55022e-07 
331 1 0.39278 0.14289 0.210085 55.845 4.41996e-07 
333 1 0.428585 0.178575 0.210148 55.845 6.41114e-07 
335 1 0.464267 0.214379 0.210391 55.845 5.00365e-07 
345 1 0.464293 0.142822 0.210162 55.845 8.04386e-07 
606 1 0.464286 0.178571 0 55.845 -1.37495e-07 
421 1 0.392942 0.214324 0.125554 55.845 -4.47033e-07 
422 1 0.392903 0.250078 0.16797 55.845 -6.50961e-07 
423 1 0.428612 0.250139 0.125618 55.845 -2.96191e-07 
433 1 0.392834 0.142808 0.125433 55.845 -3.35065e-07 
434 1 0.392883 0.178592 0.167877 55.845 -4.26038e-07 
435 1 0.428633 0.178719 0.12561 55.845 -2.78243e-07 
436 1 0.428644 0.214319 0.167883 55.845 -5.74346e-07 
437 1 0.464382 0.214356 0.125612 55.845 -9.31578e-08 
605 1 0.428571 0.142857 0 55.845 -2.07072e-07 
446 1 0.428506 0.142897 0.167883 55.845 -6.02214e-07 
447 1 0.464263 0.142886 0.125743 55.845 -1.01613e-07 
448 1 0.464225 0.178594 0.168154 55.845 -7.52654e-07 
523 1 0.392857 0.214286 0.0416667 55.845 -7.70736e-08 
524 1 0.392886 0.250046 0.0838981 55.845 5.55127e-07 
525 1 0.428571 0.25 0.0416667 55.845 -2.86659e-07 
535 1 0.392857 0.142857 0.0416667 55.845 4.18165e-07 
536 1 0.392867 0.178597 0.0838879 55.845 7.35773e-07 
537 1 0.428571 0.178571 0.0416667 55.845 9.13258e-08 
538 1 0.428592 0.214361 0.0839353 55.845 6.9413e-07 
539 1 0.464286 0.214286 0.0416667 55.845 -2.18861e-07 
548 1 0.428531 0.142869 0.0840067 55.845 5.262e-07 
549 1 0.464286 0.142857 0.0416667 55.845 -1.27695e-07 
550 1 0.464316 0.178634 0.0839017 55.845 6.95138e-07 
593 1 0.392857 0.25 0 55.845 -1.16044e-07 
599 1 0.392857 0.178571 0 55.845 -2.70959e-08 
600 1 0.428571 0.214286 0 55.845 4.56174e-08 
3 1 -1.30626e-05 0.107187 0.459023 55.845 -4.0911e-07 
7 1 -1.5291e-05 0.0357419 0.459154 55.845 -5.16011e-08 
8 1 0.0356494 0.0715693 0.458982 55.845 1.8861e-08 
9 1 0.0714102 0.107228 0.459114 55.845 -2.61476e-07 
13 1 0.0357119 6.00761e-05 0.45895 55.845 -1.15306e-07 
14 1 0.0714166 0.035745 0.459227 55.845 2.74964e-08 
15 1 0.107168 0.0716108 0.459137 55.845 -3.42727e-08 
20 1 0.107146 5.71416e-05 0.459062 55.845 -1.71106e-09 
55 1 8.84402e-05 0.107132 0.376696 55.845 2.06921e-07 
63 1 1.96427e-05 0.0357923 0.376932 55.845 4.62724e-07 
64 1 -4.12043e-05 0.0715632 0.418176 55.845 1.81785e-07 
65 1 0.0356746 0.0714822 0.376896 55.845 5.5933e-07 
66 1 0.0357131 0.107257 0.418105 55.845 3.11465e-07 
67 1 0.0713323 0.10717 0.376923 55.845 6.31428e-07 
74 1 -0.0001459 3.97423e-05 0.418009 55.845 1.74731e-07 
75 1 0.0356968 0.000137823 0.376956 55.845 3.97812e-07 
76 1 0.0356855 0.0357666 0.418305 55.845 1.11676e-07 
77 1 0.071461 0.0357392 0.377125 55.845 5.83859e-07 
78 1 0.0714217 0.0714353 0.418294 55.845 1.25359e-07 
79 1 0.107102 0.0714045 0.376787 55.845 6.76349e-07 
80 1 0.107008 0.107181 0.418053 55.845 1.33626e-07 
88 1 0.0714151 3.32253e-05 0.418398 55.845 5.54644e-08 
89 1 0.107188 8.74214e-05 0.377061 55.845 5.29079e-07 
90 1 0.107171 0.0357231 0.418256 55.845 2.50121e-08 
157 1 -6.38251e-05 0.107135 0.292022 55.845 -4.45717e-07 
165 1 -9.82132e-05 0.0357455 0.292118 55.845 -7.56576e-07 
166 1 -1.2344e-05 0.0715235 0.334213 55.845 -1.33303e-07 
167 1 0.0356612 0.0713578 0.292052 55.845 -4.9445e-07 
168 1 0.0356985 0.107118 0.334197 55.845 -9.2016e-08 
169 1 0.0714361 0.107115 0.292094 55.845 -2.84359e-07 
176 1 -5.07054e-05 -4.13585e-05 0.334309 55.845 1.81039e-07 
177 1 0.0356171 4.75668e-05 0.292094 55.845 -2.94342e-07 
178 1 0.0356403 0.0357498 0.334277 55.845 -1.02732e-07 
179 1 0.0713372 0.0356451 0.292024 55.845 -3.56634e-07 
180 1 0.0713267 0.0713191 0.33442 55.845 -2.6431e-07 
181 1 0.107076 0.0713691 0.292026 55.845 -5.25032e-07 
182 1 0.107175 0.107076 0.334372 55.845 -1.72973e-07 
190 1 0.0713468 3.35321e-05 0.334528 55.845 -2.4753e-08 
191 1 0.107055 4.47698e-05 0.292289 55.845 -4.35707e-07 
192 1 0.107203 0.0357396 0.334269 55.845 -1.55434e-08 
268 1 -5.15811e-05 0.0713515 0.251157 55.845 5.88012e-08 
270 1 0.0356688 0.107135 0.251141 55.845 3.0442e-07 
278 1 -2.43519e-05 8.74787e-05 0.251071 55.845 3.99151e-07 
280 1 0.0356033 0.0357058 0.251149 55.845 1.88255e-07 
282 1 0.0713945 0.071305 0.251051 55.845 2.7505e-07 
284 1 0.10718 0.107168 0.250969 55.845 3.09499e-07 
292 1 0.0714017 -6.09891e-05 0.251173 55.845 1.39652e-07 
294 1 0.107099 0.0356145 0.251075 55.845 3.35821e-07 
16 1 0.14277 0.107116 0.459092 55.845 -9.86442e-08 
21 1 0.142937 0.0356919 0.459384 55.845 -5.28298e-08 
22 1 0.178583 0.0714801 0.459367 55.845 2.11381e-07 
23 1 0.214268 0.107125 0.459259 55.845 1.11942e-07 
27 1 0.17857 -0.000105419 0.45925 55.845 -1.90017e-07 
28 1 0.214239 0.0357971 0.459305 55.845 -1.27385e-07 
29 1 0.249935 0.0714648 0.459319 55.845 6.39745e-08 
81 1 0.142786 0.107054 0.377004 55.845 5.76295e-07 
91 1 0.142922 0.0356371 0.376928 55.845 6.02797e-07 
92 1 0.142783 0.0713487 0.418074 55.845 1.24584e-07 
93 1 0.178525 0.0714969 0.377136 55.845 4.60321e-07 
94 1 0.178567 0.107209 0.418335 55.845 2.63551e-07 
95 1 0.2143 0.107115 0.376981 55.845 3.92151e-07 
102 1 0.142887 7.10336e-05 0.418342 55.845 1.71222e-07 
103 1 0.17854 -3.9921e-05 0.376996 55.845 2.58468e-07 
104 1 0.178552 0.0357223 0.418326 55.845 2.65556e-07 
105 1 0.214183 0.0356528 0.376921 55.845 3.51176e-07 
106 1 0.214191 0.0714169 0.418312 55.845 1.59475e-07 
107 1 0.249933 0.071443 0.376955 55.845 4.67604e-07 
108 1 0.249937 0.107137 0.418176 55.845 1.41853e-08 
118 1 0.214395 -4.51415e-06 0.418293 55.845 2.43284e-07 
120 1 0.250008 0.0357457 0.418246 55.845 2.74945e-07 
183 1 0.142866 0.107069 0.29199 55.845 -6.27871e-07 
193 1 0.14289 0.0357182 0.29194 55.845 -5.3569e-07 
194 1 0.142897 0.071433 0.334274 55.845 -5.65036e-08 
195 1 0.178567 0.071394 0.292058 55.845 -5.40733e-07 
196 1 0.178618 0.107105 0.334233 55.845 -2.63499e-07 
197 1 0.214353 0.107142 0.29209 55.845 -4.75801e-07 
204 1 0.14284 5.33887e-05 0.334287 55.845 5.30043e-08 
205 1 0.178529 9.05503e-05 0.292101 55.845 -4.13858e-07 
206 1 0.178508 0.0357739 0.33439 55.845 3.13793e-09 
207 1 0.214348 0.0356998 0.292116 55.845 -4.96182e-07 
208 1 0.214278 0.0714849 0.334443 55.845 -9.42063e-08 
209 1 0.249948 0.071353 0.292142 55.845 -5.40868e-07 
210 1 0.249989 0.107184 0.334361 55.845 -3.22501e-08 
220 1 0.214198 6.2427e-06 0.334464 55.845 8.24061e-08 
222 1 0.249886 0.0357012 0.334383 55.845 -1.84219e-07 
296 1 0.142873 0.071504 0.25115 55.845 3.07834e-07 
298 1 0.178612 0.107115 0.251147 55.845 -4.90188e-08 
306 1 0.142849 -0.000133163 0.251195 55.845 3.99508e-07 
308 1 0.178571 0.0356962 0.251012 55.845 2.14366e-07 
310 1 0.214357 0.0715162 0.251081 55.845 -1.92376e-08 
312 1 0.250044 0.107104 0.251052 55.845 9.02337e-08 
322 1 0.214271 4.01197e-05 0.251067 55.845 1.88761e-07 
324 1 0.24999 0.0356838 0.25102 55.845 1.5733e-07 
30 1 0.285706 0.10723 0.459101 55.845 -6.455e-08 
35 1 0.249984 5.53099e-05 0.459063 55.845 -3.18261e-07 
36 1 0.285768 0.0357226 0.459165 55.845 -2.77308e-07 
37 1 0.321427 0.0713842 0.459248 55.845 -1.45777e-07 
38 1 0.357184 0.107129 0.459182 55.845 3.3842e-09 
42 1 0.321421 5.87629e-05 0.459161 55.845 -2.31514e-07 
43 1 0.35718 0.0356015 0.459277 55.845 -2.27437e-07 
109 1 0.285717 0.10712 0.37693 55.845 3.35523e-07 
119 1 0.249988 3.22977e-05 0.37709 55.845 2.65451e-07 
121 1 0.285698 0.0356432 0.376905 55.845 4.65591e-07 
122 1 0.285636 0.0713479 0.418238 55.845 7.21968e-08 
123 1 0.321411 0.0714433 0.376991 55.845 6.69489e-07 
124 1 0.321431 0.107104 0.41821 55.845 -1.56282e-07 
125 1 0.357108 0.107087 0.377018 55.845 6.30278e-07 
133 1 0.321454 -3.76056e-05 0.37706 55.845 4.90221e-07 
134 1 0.321487 0.0357534 0.418233 55.845 1.59273e-07 
135 1 0.357203 0.0357107 0.376885 55.845 6.82019e-07 
136 1 0.357174 0.0713206 0.418202 55.845 -9.55089e-08 
211 1 0.285647 0.107135 0.292 55.845 -1.70496e-07 
221 1 0.249959 -2.56333e-05 0.292129 55.845 -3.24628e-07 
223 1 0.285668 0.0356758 0.292236 55.845 -3.38673e-07 
224 1 0.28567 0.0713903 0.334427 55.845 -1.83766e-07 
225 1 0.321416 0.0713402 0.292252 55.845 -3.27694e-07 
226 1 0.321363 0.107189 0.334384 55.845 -2.203e-07 
227 1 0.357152 0.107073 0.292061 55.845 -2.81231e-07 
235 1 0.321411 -2.09667e-05 0.292224 55.845 -3.54107e-07 
236 1 0.321539 0.035641 0.334443 55.845 -2.64722e-07 
237 1 0.357166 0.0357998 0.292045 55.845 -3.56934e-07 
238 1 0.357091 0.0714507 0.334559 55.845 -2.84469e-07 
326 1 0.285658 0.0713474 0.251183 55.845 -1.53141e-08 
328 1 0.321337 0.107191 0.251272 55.845 -5.6418e-08 
338 1 0.321445 0.0356473 0.251196 55.845 2.48748e-08 
340 1 0.357146 0.0715018 0.25111 55.845 2.14954e-07 
44 1 0.392875 0.0714001 0.459134 55.845 -6.49217e-08 
45 1 0.428601 0.107089 0.459068 55.845 -8.32478e-08 
47 1 0.392877 -2.57092e-05 0.459096 55.845 -7.44076e-10 
48 1 0.428611 0.0356908 0.45912 55.845 -2.76072e-08 
49 1 0.46431 0.071355 0.459062 55.845 4.19629e-08 
50 1 0.464341 5.19143e-05 0.459065 55.845 2.16881e-08 
137 1 0.392854 0.0713412 0.37699 55.845 6.73925e-07 
138 1 0.392863 0.10715 0.41817 55.845 -1.57694e-07 
139 1 0.428529 0.107125 0.376787 55.845 6.38638e-07 
144 1 0.392828 -5.36466e-05 0.377005 55.845 5.03898e-07 
145 1 0.392908 0.0358162 0.418216 55.845 -2.10764e-07 
146 1 0.428499 0.0357284 0.376873 55.845 6.03769e-07 
147 1 0.42864 0.071353 0.418089 55.845 1.11673e-08 
148 1 0.464227 0.0714735 0.376875 55.845 2.64788e-07 
149 1 0.464344 0.107097 0.418011 55.845 9.84552e-08 
150 1 0.428544 9.94071e-05 0.418164 55.845 -2.02438e-07 
151 1 0.464227 6.6156e-05 0.376713 55.845 3.83857e-07 
152 1 0.464338 0.0356036 0.418127 55.845 -1.60308e-07 
239 1 0.392748 0.0713677 0.292145 55.845 -3.15089e-07 
240 1 0.392799 0.107069 0.334458 55.845 -2.97057e-07 
241 1 0.428542 0.107093 0.292003 55.845 -2.38604e-07 
246 1 0.392782 5.1743e-05 0.292011 55.845 -5.25686e-07 
247 1 0.392864 0.0356448 0.334389 55.845 -1.47242e-07 
248 1 0.428554 0.0358035 0.292108 55.845 -4.68769e-07 
249 1 0.428539 0.0714132 0.3343 55.845 -1.02254e-07 
250 1 0.464172 0.0713556 0.29196 55.845 -3.22494e-07 
251 1 0.464221 0.107094 0.334093 55.845 2.72526e-08 
252 1 0.428448 4.84217e-05 0.334395 55.845 -6.0431e-08 
253 1 0.464321 6.04519e-05 0.291889 55.845 -4.52576e-07 
254 1 0.464229 0.0358176 0.334312 55.845 -5.89456e-08 
342 1 0.392757 0.107118 0.251182 55.845 1.46288e-08 
349 1 0.392869 0.0357494 0.251126 55.845 1.56248e-07 
351 1 0.428423 0.0714405 0.251052 55.845 1.24486e-07 
353 1 0.464218 0.107115 0.250944 55.845 -8.3348e-08 
354 1 0.428487 5.46306e-05 0.251214 55.845 8.64565e-08 
356 1 0.464149 0.0357369 0.250966 55.845 -1.29995e-07 
1 1 -7.83128e-05 0.178536 0.459148 55.845 -4.89159e-07 
2 1 0.0357588 0.214305 0.459216 55.845 -3.19706e-07 
4 1 0.0356625 0.142881 0.459086 55.845 -5.88506e-07 
5 1 0.0714455 0.17854 0.459224 55.845 -4.24607e-07 
6 1 0.10707 0.214273 0.459199 55.845 -3.67677e-07 
10 1 0.107112 0.142787 0.459249 55.845 -1.88265e-07 
51 1 5.93886e-05 0.178569 0.376763 55.845 2.28803e-07 
52 1 7.92149e-06 0.214298 0.418262 55.845 1.67889e-07 
53 1 0.035708 0.214273 0.376829 55.845 1.84485e-07 
54 1 0.0357117 0.249912 0.418241 55.845 1.04598e-07 
56 1 -1.65698e-05 0.142885 0.41812 55.845 1.92534e-07 
57 1 0.0356663 0.142847 0.376796 55.845 2.9361e-07 
58 1 0.0357335 0.17853 0.418127 55.845 3.69488e-07 
59 1 0.0713456 0.178564 0.376869 55.845 3.54109e-07 
60 1 0.0714345 0.214307 0.418278 55.845 3.64703e-07 
61 1 0.107064 0.214288 0.377 55.845 3.16077e-07 
62 1 0.107193 0.249966 0.418139 55.845 3.35032e-07 
68 1 0.0714 0.142881 0.418316 55.845 3.23324e-07 
69 1 0.107062 0.142782 0.376817 55.845 5.57779e-07 
70 1 0.107181 0.178516 0.418076 55.845 4.17771e-07 
153 1 -5.0956e-05 0.178564 0.292169 55.845 -4.96359e-08 
154 1 4.57105e-05 0.214276 0.334387 55.845 7.77616e-08 
155 1 0.0356719 0.21425 0.292074 55.845 -3.65007e-07 
156 1 0.0356357 0.249951 0.334333 55.845 -5.59922e-09 
158 1 -1.28835e-05 0.142895 0.334292 55.845 1.32428e-07 
159 1 0.0357438 0.142836 0.29211 55.845 -1.99928e-07 
160 1 0.0357925 0.178522 0.334246 55.845 1.02635e-07 
161 1 0.0714416 0.1785 0.292051 55.845 -4.23645e-07 
162 1 0.0714289 0.214256 0.334217 55.845 -5.35989e-08 
163 1 0.107116 0.214234 0.292049 55.845 -5.17554e-07 
164 1 0.107062 0.249963 0.334263 55.845 1.83642e-07 
170 1 0.0715348 0.142808 0.334327 55.845 -9.74931e-08 
171 1 0.107265 0.142815 0.292148 55.845 -6.48431e-07 
172 1 0.10715 0.178542 0.334375 55.845 -7.6037e-08 
256 1 -5.09544e-05 0.214409 0.251077 55.845 2.53895e-07 
258 1 0.0357334 0.250031 0.251048 55.845 3.58404e-07 
260 1 -5.86602e-06 0.142876 0.251279 55.845 2.57341e-07 
262 1 0.0355634 0.17856 0.251164 55.845 3.26094e-07 
264 1 0.0714016 0.214281 0.251101 55.845 2.48494e-07 
266 1 0.107115 0.249965 0.251046 55.845 5.04385e-07 
272 1 0.0715595 0.142841 0.251118 55.845 3.85757e-07 
274 1 0.107174 0.178502 0.251148 55.845 3.24536e-07 
11 1 0.142826 0.178509 0.459227 55.845 -2.40333e-07 
12 1 0.178434 0.214254 0.459274 55.845 -2.90447e-07 
17 1 0.178519 0.142899 0.459174 55.845 -8.78946e-08 
18 1 0.214266 0.178386 0.459141 55.845 -1.78796e-07 
19 1 0.249978 0.214317 0.458973 55.845 -4.27926e-07 
24 1 0.249915 0.14281 0.459024 55.845 -1.77374e-07 
71 1 0.142769 0.178514 0.376973 55.845 4.71495e-07 
72 1 0.142741 0.214188 0.418251 55.845 1.8146e-07 
73 1 0.178515 0.21436 0.377075 55.845 2.00975e-07 
82 1 0.142661 0.142775 0.418115 55.845 1.40462e-07 
83 1 0.178595 0.142855 0.377112 55.845 1.86572e-07 
84 1 0.178498 0.178626 0.418351 55.845 1.33156e-07 
85 1 0.214217 0.178617 0.37714 55.845 1.24829e-07 
86 1 0.214236 0.214288 0.418354 55.845 2.66067e-07 
87 1 0.24998 0.21429 0.376911 55.845 4.84533e-08 
96 1 0.214261 0.142789 0.418331 55.845 1.17691e-07 
97 1 0.249951 0.14287 0.37693 55.845 2.24591e-07 
98 1 0.249878 0.178549 0.418152 55.845 1.13159e-07 
173 1 0.14286 0.178548 0.292251 55.845 -5.63367e-07 
174 1 0.142824 0.21427 0.334402 55.845 1.33189e-07 
175 1 0.178578 0.214255 0.292381 55.845 -2.14697e-07 
184 1 0.14289 0.142795 0.334466 55.845 -2.61223e-07 
185 1 0.178587 0.142846 0.292234 55.845 -4.84592e-07 
186 1 0.178553 0.178501 0.334408 55.845 3.05986e-08 
187 1 0.214254 0.178619 0.292288 55.845 -2.93149e-07 
188 1 0.21427 0.214297 0.334411 55.845 3.48886e-07 
189 1 0.249879 0.214309 0.29208 55.845 -2.49683e-07 
198 1 0.214273 0.142814 0.334383 55.845 -9.70218e-08 
199 1 0.25001 0.142827 0.292249 55.845 -2.2854e-07 
200 1 0.249946 0.17861 0.334416 55.845 3.04758e-07 
276 1 0.142864 0.214318 0.251124 55.845 4.59983e-07 
286 1 0.142888 0.142912 0.251126 55.845 2.45658e-07 
288 1 0.178565 0.178582 0.251122 55.845 1.56174e-07 
290 1 0.214214 0.214373 0.251138 55.845 2.06256e-07 
300 1 0.214261 0.14284 0.25115 55.845 2.90455e-08 
302 1 0.249952 0.178487 0.251248 55.845 2.58815e-07 
25 1 0.285663 0.17856 0.458989 55.845 -3.03438e-07 
26 1 0.321363 0.214295 0.459063 55.845 -2.79057e-07 
31 1 0.321391 0.142894 0.459078 55.845 -8.41255e-08 
32 1 0.357129 0.178581 0.459165 55.845 3.51069e-08 
99 1 0.285719 0.178575 0.376931 55.845 1.27636e-07 
100 1 0.285718 0.214222 0.417989 55.845 1.10739e-07 
101 1 0.321358 0.214332 0.37702 55.845 3.51547e-07 
110 1 0.285698 0.142884 0.418192 55.845 7.57212e-08 
111 1 0.321385 0.142859 0.376932 55.845 4.44993e-07 
112 1 0.321431 0.178575 0.418143 55.845 -2.47265e-08 
113 1 0.357167 0.178508 0.376798 55.845 4.88678e-07 
114 1 0.357135 0.214312 0.418202 55.845 -1.71133e-07 
126 1 0.357081 0.142788 0.418163 55.845 -1.10753e-07 
201 1 0.285698 0.178467 0.291877 55.845 -8.9533e-08 
202 1 0.285688 0.214184 0.334275 55.845 1.46663e-07 
203 1 0.321472 0.214285 0.29198 55.845 -3.64337e-07 
212 1 0.285747 0.142866 0.334272 55.845 5.77747e-08 
213 1 0.321502 0.142896 0.29213 55.845 -2.25808e-07 
214 1 0.32135 0.178617 0.334366 55.845 5.79029e-09 
215 1 0.357134 0.178602 0.292119 55.845 -3.35786e-07 
216 1 0.357126 0.21433 0.334416 55.845 -9.45727e-08 