ITEM: TIMESTEP
6200
ITEM: NUMBER OF ATOMS
5880
ITEM: BOX BOUNDS pp pp ff
-28.0003 28.0003
-28.0003 28.0003
0 34.092
ITEM: ATOMS id type xs ys zs mass q 
259 1 5.36991e-05 0.107164 0.20847 55.845 -1.11585e-07 
267 1 0.000101421 0.0356334 0.208631 55.845 -3.42948e-07 
269 1 0.0357428 0.0714614 0.208577 55.845 -1.98596e-07 
271 1 0.0714458 0.107055 0.208641 55.845 -2.08297e-07 
279 1 0.0356827 6.75864e-05 0.208722 55.845 -2.30154e-07 
281 1 0.071483 0.0357144 0.208695 55.845 -2.71767e-07 
283 1 0.107181 0.0714213 0.208753 55.845 -3.24632e-07 
293 1 0.107239 6.97874e-05 0.208724 55.845 -2.34096e-07 
361 1 5.19374e-05 0.107087 0.125286 55.845 5.50712e-08 
369 1 -5.6735e-05 0.0356916 0.125294 55.845 -9.19002e-09 
370 1 4.67043e-05 0.071385 0.167317 55.845 3.09176e-07 
371 1 0.0357493 0.0714089 0.125351 55.845 7.86939e-08 
372 1 0.0357804 0.107197 0.16715 55.845 1.6174e-07 
373 1 0.0715315 0.107116 0.125213 55.845 3.40175e-08 
380 1 -1.75515e-05 -2.91214e-05 0.167027 55.845 3.88167e-07 
381 1 0.0357878 3.61457e-06 0.125342 55.845 9.40365e-08 
382 1 0.0357027 0.0356292 0.167215 55.845 2.88395e-07 
383 1 0.0713723 0.0357393 0.125358 55.845 1.29128e-07 
384 1 0.0714651 0.0714349 0.167198 55.845 2.12234e-07 
385 1 0.1072 0.0714504 0.125333 55.845 3.35449e-08 
386 1 0.10722 0.107101 0.167137 55.845 3.22037e-07 
394 1 0.0714547 -1.03161e-05 0.167309 55.845 2.8753e-07 
395 1 0.107187 -4.35143e-05 0.125423 55.845 1.83164e-07 
396 1 0.107169 0.0357288 0.167251 55.845 3.68399e-07 
463 1 0 0.107143 0.0416667 55.845 -1.81443e-07 
471 1 0 0.0357143 0.0416667 55.845 -1.56261e-07 
472 1 7.32588e-05 0.071346 0.0827401 55.845 -6.96243e-08 
473 1 0.0357143 0.0714286 0.0416667 55.845 -2.13182e-07 
474 1 0.0357044 0.107206 0.0827373 55.845 -8.36709e-08 
475 1 0.0714286 0.107143 0.0416667 55.845 -2.68615e-07 
482 1 3.70753e-05 -1.22911e-05 0.0827612 55.845 -2.15204e-07 
483 1 0.0357143 0 0.0416667 55.845 -2.0691e-07 
484 1 0.0357383 0.0357389 0.0828317 55.845 -1.80878e-07 
485 1 0.0714286 0.0357143 0.0416667 55.845 -1.35667e-07 
486 1 0.0714786 0.0713853 0.0827849 55.845 -2.09097e-07 
487 1 0.107143 0.0714286 0.0416667 55.845 -1.09413e-07 
488 1 0.107195 0.107144 0.0827873 55.845 -2.10287e-07 
496 1 0.0714454 -7.74482e-05 0.0828621 55.845 -2.23556e-07 
497 1 0.107143 0 0.0416667 55.845 -2.67077e-08 
498 1 0.107207 0.0357074 0.0828671 55.845 -3.07692e-07 
567 1 0 0.0714286 0 55.845 2.71717e-08 
568 1 0.0357143 0.107143 0 55.845 5.20057e-08 
572 1 0 0 0 55.845 -7.45883e-08 
573 1 0.0357143 0.0357143 0 55.845 -1.33898e-08 
574 1 0.0714286 0.0714286 0 55.845 -7.03472e-10 
575 1 0.107143 0.107143 0 55.845 -7.64341e-08 
579 1 0.0714286 0 0 55.845 -2.80955e-08 
580 1 0.107143 0.0357143 0 55.845 -9.04081e-08 
285 1 0.142843 0.107051 0.208723 55.845 -3.1516e-07 
295 1 0.142821 0.0357216 0.208688 55.845 -3.95895e-07 
297 1 0.178682 0.0713697 0.2087 55.845 -3.86415e-07 
299 1 0.214332 0.107262 0.208643 55.845 -3.2297e-07 
307 1 0.178624 -1.09768e-05 0.208662 55.845 -2.99366e-07 
309 1 0.214308 0.0356208 0.208657 55.845 -3.81112e-07 
311 1 0.25 0.071407 0.208718 55.845 -2.28971e-07 
387 1 0.142885 0.107112 0.125319 55.845 6.56937e-08 
397 1 0.142884 0.0355607 0.125211 55.845 8.14077e-08 
398 1 0.142905 0.0713857 0.167009 55.845 4.30982e-07 
399 1 0.178598 0.0714211 0.125313 55.845 1.31981e-07 
400 1 0.178645 0.10711 0.167294 55.845 4.49891e-07 
401 1 0.214268 0.107091 0.12525 55.845 1.62732e-07 
408 1 0.143018 3.45512e-06 0.167336 55.845 3.9722e-07 
409 1 0.178675 8.91869e-05 0.125232 55.845 1.0543e-07 
410 1 0.178591 0.0357686 0.167109 55.845 5.03275e-07 
411 1 0.214241 0.0357459 0.125213 55.845 1.01776e-07 
412 1 0.214312 0.0714853 0.16732 55.845 5.06899e-07 
413 1 0.250011 0.0714177 0.125408 55.845 4.64572e-08 
414 1 0.249968 0.107195 0.167144 55.845 3.94498e-07 
424 1 0.214334 -4.36107e-05 0.167189 55.845 4.63666e-07 
426 1 0.24997 0.0357497 0.167355 55.845 4.89756e-07 
489 1 0.142857 0.107143 0.0416667 55.845 -6.20733e-08 
499 1 0.142857 0.0357143 0.0416667 55.845 -3.02405e-09 
500 1 0.142915 0.0713924 0.0826631 55.845 -3.03455e-07 
501 1 0.178571 0.0714286 0.0416667 55.845 -3.60919e-08 
502 1 0.178613 0.107145 0.0828394 55.845 -2.70334e-07 
503 1 0.214286 0.107143 0.0416667 55.845 -6.61072e-08 
510 1 0.142886 -2.9134e-05 0.0828297 55.845 -2.22736e-07 
511 1 0.178571 0 0.0416667 55.845 -8.10195e-08 
512 1 0.178528 0.035717 0.0828536 55.845 -2.22908e-07 
513 1 0.214286 0.0357143 0.0416667 55.845 -3.88988e-08 
514 1 0.214349 0.0714369 0.082794 55.845 -1.621e-07 
515 1 0.25 0.0714286 0.0416667 55.845 -1.03303e-07 
516 1 0.249959 0.107124 0.0827703 55.845 -1.20774e-07 
526 1 0.21427 -7.2628e-05 0.0826843 55.845 -1.42033e-07 
528 1 0.249982 0.035771 0.0828543 55.845 -7.34313e-08 
581 1 0.142857 0.0714286 0 55.845 -8.19722e-08 
582 1 0.178571 0.107143 0 55.845 -5.34963e-08 
586 1 0.142857 0 0 55.845 -2.89818e-08 
587 1 0.178571 0.0357143 0 55.845 -1.72935e-08 
588 1 0.214286 0.0714286 0 55.845 2.57526e-08 
589 1 0.25 0.107143 0 55.845 8.29126e-09 
594 1 0.214286 0 0 55.845 2.31895e-09 
595 1 0.25 0.0357143 0 55.845 3.09612e-08 
313 1 0.285709 0.107159 0.20872 55.845 -1.11525e-07 
323 1 0.250005 2.96524e-05 0.208674 55.845 -2.26441e-07 
325 1 0.285691 0.0356014 0.208679 55.845 -1.29673e-07 
327 1 0.321457 0.0714157 0.208648 55.845 -2.66472e-08 
329 1 0.357082 0.107074 0.208696 55.845 -2.11599e-08 
337 1 0.321509 -9.94944e-05 0.208594 55.845 -8.23683e-08 
339 1 0.357086 0.0357478 0.208697 55.845 4.79742e-08 
415 1 0.285663 0.107163 0.125377 55.845 5.38091e-08 
425 1 0.24996 3.23118e-05 0.125305 55.845 4.88385e-09 
427 1 0.28564 0.035648 0.125316 55.845 3.02559e-08 
428 1 0.285665 0.0713513 0.167307 55.845 2.80831e-07 
429 1 0.32136 0.0714264 0.125315 55.845 1.09168e-07 
430 1 0.321348 0.107138 0.167214 55.845 1.59361e-07 
431 1 0.357108 0.107077 0.125309 55.845 1.34256e-07 
439 1 0.321453 -6.79652e-06 0.125311 55.845 1.39221e-07 
440 1 0.321378 0.0356547 0.16719 55.845 1.92695e-07 
441 1 0.357038 0.035605 0.125459 55.845 1.7455e-07 
442 1 0.357042 0.0714288 0.167166 55.845 1.40648e-07 
517 1 0.285714 0.107143 0.0416667 55.845 -2.28614e-07 
527 1 0.25 0 0.0416667 55.845 -1.15185e-07 
529 1 0.285714 0.0357143 0.0416667 55.845 -1.71404e-07 
530 1 0.285733 0.0714412 0.0829314 55.845 4.70411e-09 
531 1 0.321429 0.0714286 0.0416667 55.845 -3.13992e-07 
532 1 0.321435 0.107268 0.0828586 55.845 -2.9091e-08 
533 1 0.357143 0.107143 0.0416667 55.845 -2.79379e-07 
603 1 0.357143 0.0714286 0 55.845 4.81955e-08 
541 1 0.321429 0 0.0416667 55.845 -2.04295e-07 
542 1 0.321367 0.035715 0.0828858 55.845 -8.2607e-08 
543 1 0.357143 0.0357143 0.0416667 55.845 -1.81163e-07 
544 1 0.357087 0.0714002 0.0829025 55.845 -7.81686e-08 
602 1 0.321429 0.0357143 0 55.845 7.342e-08 
596 1 0.285714 0.0714286 0 55.845 7.38377e-08 
597 1 0.321429 0.107143 0 55.845 7.57637e-08 
612 1 0.464286 0.0357143 0 55.845 -5.27259e-08 
611 1 0.428571 0 0 55.845 -2.41886e-08 
610 1 0.464286 0.107143 0 55.845 3.4758e-10 
609 1 0.428571 0.0714286 0 55.845 -4.76613e-08 
608 1 0.392857 0.0357143 0 55.845 -2.92519e-08 
341 1 0.392712 0.0714699 0.208584 55.845 9.70947e-09 
343 1 0.428638 0.107109 0.208745 55.845 -6.61769e-08 
348 1 0.392893 1.9529e-05 0.208586 55.845 1.11222e-08 
350 1 0.428572 0.0357831 0.208755 55.845 -6.64122e-09 
352 1 0.464322 0.071461 0.208676 55.845 -1.13287e-07 
355 1 0.464312 1.93357e-05 0.208752 55.845 -1.73207e-07 
443 1 0.392771 0.071423 0.125208 55.845 2.16416e-07 
444 1 0.392808 0.107156 0.167216 55.845 1.94217e-07 
445 1 0.428497 0.107108 0.125354 55.845 1.3789e-07 
604 1 0.392857 0.107143 0 55.845 -1.48669e-08 
450 1 0.392858 2.56306e-05 0.1252 55.845 3.13997e-07 
451 1 0.392764 0.0357151 0.167239 55.845 2.14457e-07 
452 1 0.428556 0.0356753 0.125391 55.845 2.90226e-07 
453 1 0.428533 0.071392 0.167305 55.845 2.57662e-07 
454 1 0.464312 0.0714476 0.125256 55.845 2.38282e-07 
455 1 0.464343 0.107184 0.167293 55.845 2.67204e-07 
456 1 0.428533 -3.52227e-05 0.167185 55.845 2.60908e-07 
457 1 0.464196 6.57864e-05 0.125191 55.845 4.39779e-07 
458 1 0.464331 0.0356894 0.167239 55.845 2.61436e-07 
545 1 0.392857 0.0714286 0.0416667 55.845 -2.11725e-07 
546 1 0.392891 0.107153 0.0827607 55.845 -1.64735e-07 
547 1 0.428571 0.107143 0.0416667 55.845 -2.23612e-07 
552 1 0.392857 0 0.0416667 55.845 1.15568e-08 
553 1 0.392841 0.0357691 0.0828937 55.845 -1.81982e-07 
554 1 0.428571 0.0357143 0.0416667 55.845 -4.20057e-10 
555 1 0.428512 0.071417 0.0829255 55.845 -1.85438e-07 
556 1 0.464286 0.0714286 0.0416667 55.845 -1.23052e-07 
557 1 0.464339 0.107132 0.0828755 55.845 -1.36382e-07 
558 1 0.428448 -6.04466e-05 0.0827673 55.845 -2.86196e-07 
559 1 0.464286 0 0.0416667 55.845 9.39624e-08 
560 1 0.464223 0.0357088 0.0827236 55.845 -3.20327e-07 
255 1 -3.92259e-05 0.178562 0.208653 55.845 -8.98266e-08 
257 1 0.035654 0.214231 0.208619 55.845 -2.99339e-07 
261 1 0.0357339 0.142815 0.208519 55.845 -6.7521e-08 
263 1 0.071458 0.17851 0.208432 55.845 -1.98919e-07 
265 1 0.10712 0.214226 0.208479 55.845 -2.30477e-07 
273 1 0.107098 0.14284 0.208678 55.845 -1.59929e-07 
357 1 -3.83738e-05 0.178546 0.125354 55.845 2.63583e-08 
358 1 4.12175e-06 0.214354 0.167044 55.845 3.03958e-07 
359 1 0.035769 0.214267 0.125385 55.845 2.00787e-08 
360 1 0.0356627 0.250016 0.167202 55.845 5.0171e-07 
362 1 -5.09282e-05 0.142833 0.167135 55.845 1.7041e-07 
363 1 0.035711 0.1429 0.125138 55.845 3.31039e-08 
364 1 0.0356176 0.178564 0.167157 55.845 1.81555e-07 
365 1 0.0714595 0.178637 0.125336 55.845 4.47495e-08 
366 1 0.0714505 0.214275 0.167131 55.845 3.06917e-07 
367 1 0.107177 0.214277 0.125286 55.845 1.26708e-07 
368 1 0.10709 0.250007 0.167265 55.845 4.25367e-07 
374 1 0.0714639 0.142797 0.167031 55.845 1.68147e-07 
375 1 0.107066 0.14284 0.125145 55.845 2.88236e-08 
376 1 0.107132 0.178606 0.167209 55.845 3.43003e-07 
459 1 0 0.178571 0.0416667 55.845 -2.83727e-07 
460 1 -0.000148517 0.214366 0.0827941 55.845 -1.13901e-07 
461 1 0.0357143 0.214286 0.0416667 55.845 -2.06707e-07 
462 1 0.0357726 0.24999 0.0828667 55.845 -2.26857e-07 
464 1 -2.64234e-05 0.142785 0.0826998 55.845 -4.51455e-08 
465 1 0.0357143 0.142857 0.0416667 55.845 -3.38716e-07 
466 1 0.0357121 0.178602 0.0829897 55.845 -1.45622e-07 
467 1 0.0714286 0.178571 0.0416667 55.845 -2.728e-07 
468 1 0.071403 0.214275 0.0826907 55.845 -2.13875e-07 
469 1 0.107143 0.214286 0.0416667 55.845 -4.50131e-08 
470 1 0.107192 0.249978 0.0827917 55.845 -3.2539e-07 
476 1 0.0715232 0.142823 0.0827549 55.845 -9.62738e-08 
477 1 0.107143 0.142857 0.0416667 55.845 -2.004e-07 
478 1 0.107195 0.17862 0.0827561 55.845 -1.4934e-07 
561 1 0 0.214286 0 55.845 -3.35462e-08 
562 1 0.0357143 0.25 0 55.845 -1.86844e-08 
563 1 0 0.142857 0 55.845 4.04385e-08 
564 1 0.0357143 0.178571 0 55.845 -1.07747e-08 
565 1 0.0714286 0.214286 0 55.845 -6.64304e-08 
566 1 0.107143 0.25 0 55.845 -7.11353e-08 
569 1 0.0714286 0.142857 0 55.845 2.03392e-08 
570 1 0.107143 0.178571 0 55.845 -1.82258e-08 
275 1 0.142925 0.178497 0.208645 55.845 -1.94187e-07 
277 1 0.178546 0.21437 0.208597 55.845 -2.33233e-07 
287 1 0.17863 0.142865 0.208572 55.845 -2.57874e-07 
289 1 0.214207 0.178583 0.208631 55.845 -2.15636e-07 
291 1 0.250016 0.214198 0.208556 55.845 -1.89985e-07 
301 1 0.249957 0.142852 0.208767 55.845 -2.24935e-07 
377 1 0.142822 0.178617 0.125324 55.845 1.96603e-07 
378 1 0.14288 0.214198 0.167298 55.845 3.51544e-07 
379 1 0.178602 0.21434 0.125348 55.845 2.10542e-07 
388 1 0.142805 0.142822 0.167188 55.845 3.84562e-07 
389 1 0.178548 0.142792 0.125374 55.845 2.22414e-07 
390 1 0.178581 0.178596 0.16713 55.845 3.95059e-07 
391 1 0.214239 0.178587 0.125211 55.845 1.05775e-07 
392 1 0.214308 0.21422 0.167093 55.845 3.056e-07 
393 1 0.249958 0.21425 0.125268 55.845 8.58374e-09 
402 1 0.214247 0.142935 0.167233 55.845 3.22538e-07 
403 1 0.249939 0.142894 0.125361 55.845 1.36212e-08 
404 1 0.249961 0.178535 0.167311 55.845 2.74443e-07 
479 1 0.142857 0.178571 0.0416667 55.845 -4.19586e-08 
480 1 0.142826 0.214337 0.0828389 55.845 -2.3907e-07 
481 1 0.178571 0.214286 0.0416667 55.845 -1.27772e-08 
490 1 0.142799 0.14279 0.0828569 55.845 -1.6937e-07 
491 1 0.178571 0.142857 0.0416667 55.845 -6.39656e-08 
492 1 0.178583 0.178549 0.0827538 55.845 -2.49484e-07 
493 1 0.214286 0.178571 0.0416667 55.845 -1.70212e-07 
494 1 0.214244 0.214252 0.0828556 55.845 -1.52889e-07 
495 1 0.25 0.214286 0.0416667 55.845 -2.39752e-07 
504 1 0.21427 0.142823 0.0828337 55.845 -2.15233e-07 
505 1 0.25 0.142857 0.0416667 55.845 -2.12597e-07 
506 1 0.250006 0.178497 0.0827187 55.845 -1.35284e-07 
571 1 0.142857 0.214286 0 55.845 -5.7107e-08 
576 1 0.142857 0.142857 0 55.845 -3.41473e-08 
577 1 0.178571 0.178571 0 55.845 -9.5127e-09 
578 1 0.214286 0.214286 0 55.845 -1.23215e-08 
583 1 0.214286 0.142857 0 55.845 -3.21786e-08 
584 1 0.25 0.178571 0 55.845 -1.39853e-08 
303 1 0.285701 0.178543 0.208548 55.845 -1.42947e-07 
305 1 0.321451 0.214316 0.208561 55.845 -1.44025e-07 
315 1 0.321355 0.142908 0.208442 55.845 -7.5861e-08 
317 1 0.357111 0.178526 0.208471 55.845 -1.62124e-07 
405 1 0.285782 0.178579 0.125098 55.845 -3.91673e-08 
406 1 0.285732 0.214214 0.166954 55.845 2.24017e-07 
407 1 0.321442 0.214234 0.125012 55.845 5.59372e-08 
416 1 0.285549 0.142873 0.167148 55.845 1.94286e-07 
417 1 0.321465 0.142885 0.125486 55.845 3.68158e-08 
418 1 0.321492 0.178673 0.167111 55.845 1.7262e-07 
419 1 0.357132 0.178537 0.125268 55.845 9.69718e-08 
420 1 0.357119 0.214283 0.167124 55.845 1.94984e-07 
432 1 0.357126 0.142731 0.167048 55.845 1.96829e-07 
507 1 0.285714 0.178571 0.0416667 55.845 -2.90037e-07 
508 1 0.285722 0.21436 0.0827518 55.845 -1.25313e-07 
509 1 0.321429 0.214286 0.0416667 55.845 -1.73281e-07 
518 1 0.285776 0.142771 0.0827594 55.845 -1.14279e-07 
519 1 0.321429 0.142857 0.0416667 55.845 -2.70088e-07 
520 1 0.321393 0.178531 0.0827137 55.845 -1.44592e-07 
521 1 0.357143 0.178571 0.0416667 55.845 -1.57936e-07 
522 1 0.35718 0.214237 0.0826757 55.845 -2.8317e-07 
534 1 0.357142 0.142862 0.0826908 55.845 -1.27773e-07 
585 1 0.285714 0.214286 0 55.845 2.30686e-08 
590 1 0.285714 0.142857 0 55.845 4.63346e-09 
591 1 0.321429 0.178571 0 55.845 1.82723e-08 
592 1 0.357143 0.214286 0 55.845 -6.19383e-08 
598 1 0.357143 0.142857 0 55.845 1.39192e-08 
319 1 0.39276 0.214181 0.208423 55.845 -2.29201e-07 
321 1 0.428584 0.249991 0.208437 55.845 -3.96293e-07 
331 1 0.39284 0.142868 0.208773 55.845 -1.12981e-07 
333 1 0.428585 0.178466 0.208586 55.845 -1.5315e-07 
335 1 0.464331 0.214303 0.208566 55.845 -2.53985e-07 
345 1 0.464319 0.142918 0.208655 55.845 -1.39778e-07 
606 1 0.464286 0.178571 0 55.845 1.99903e-10 
421 1 0.392844 0.214336 0.12533 55.845 1.4089e-07 
422 1 0.392844 0.250014 0.167153 55.845 3.18596e-07 
423 1 0.428543 0.250148 0.125255 55.845 1.41322e-07 
433 1 0.392745 0.142823 0.125283 55.845 1.5009e-07 
434 1 0.392821 0.178484 0.167145 55.845 2.94353e-07 
435 1 0.428495 0.178512 0.125406 55.845 1.11665e-07 
436 1 0.428601 0.214313 0.166973 55.845 3.83105e-07 
437 1 0.464299 0.214294 0.125299 55.845 8.84066e-08 
605 1 0.428571 0.142857 0 55.845 -4.87173e-08 
446 1 0.428528 0.142771 0.167124 55.845 2.82384e-07 
447 1 0.46432 0.142831 0.125289 55.845 7.10074e-08 
448 1 0.464272 0.178639 0.167205 55.845 3.43262e-07 
523 1 0.392857 0.214286 0.0416667 55.845 -3.00237e-08 
524 1 0.392795 0.250077 0.0828433 55.845 -4.78355e-07 
525 1 0.428571 0.25 0.0416667 55.845 1.56945e-08 
535 1 0.392857 0.142857 0.0416667 55.845 -1.48263e-07 
536 1 0.392859 0.178498 0.0828671 55.845 -2.41612e-07 
537 1 0.428571 0.178571 0.0416667 55.845 -9.59327e-08 
538 1 0.428604 0.214265 0.0829011 55.845 -2.46028e-07 
539 1 0.464286 0.214286 0.0416667 55.845 -6.56123e-08 
548 1 0.428566 0.142781 0.0828401 55.845 -1.39825e-07 
549 1 0.464286 0.142857 0.0416667 55.845 -2.2895e-07 
550 1 0.464264 0.178556 0.0829046 55.845 -1.08019e-07 
593 1 0.392857 0.25 0 55.845 -1.14355e-07 
599 1 0.392857 0.178571 0 55.845 -1.45908e-08 
600 1 0.428571 0.214286 0 55.845 -9.00452e-08 
3 1 -5.0931e-06 0.107174 0.45815 55.845 8.08049e-08 
7 1 -5.60103e-05 0.0356671 0.458089 55.845 -7.32702e-08 
8 1 0.0355935 0.0713606 0.458304 55.845 -3.11067e-08 
9 1 0.0714906 0.10714 0.458188 55.845 -3.69129e-08 
13 1 0.035633 3.09332e-06 0.458315 55.845 -1.16489e-07 
14 1 0.0713088 0.0356005 0.458276 55.845 -1.30446e-07 
15 1 0.10712 0.0714086 0.458196 55.845 -1.33971e-07 
20 1 0.107114 7.2741e-05 0.45816 55.845 -1.09761e-07 
55 1 1.49441e-05 0.107057 0.374747 55.845 -1.25994e-07 
63 1 -3.64233e-05 0.035687 0.374662 55.845 -2.2115e-07 
64 1 -5.64232e-05 0.0714068 0.416558 55.845 7.86499e-08 
65 1 0.0356936 0.0713584 0.374694 55.845 -1.77041e-07 
66 1 0.0357731 0.107157 0.416585 55.845 9.73206e-08 
67 1 0.0714444 0.107171 0.374746 55.845 -2.29603e-07 
74 1 -6.56542e-05 -2.06661e-06 0.416777 55.845 1.38877e-07 
75 1 0.03568 -2.27345e-05 0.374765 55.845 -2.22369e-07 
76 1 0.0356208 0.0356738 0.416644 55.845 5.60698e-08 
77 1 0.0712272 0.0357317 0.374716 55.845 -1.5658e-07 
78 1 0.0713516 0.0714129 0.416588 55.845 1.71023e-07 
79 1 0.107074 0.0713658 0.37471 55.845 -1.85877e-07 
80 1 0.107124 0.107181 0.416667 55.845 2.43035e-07 
88 1 0.0712574 3.97838e-05 0.416557 55.845 5.46078e-08 
89 1 0.10711 7.56818e-05 0.374695 55.845 -1.80545e-07 
90 1 0.107086 0.0356781 0.416494 55.845 1.59023e-07 
157 1 0.000103799 0.107102 0.291044 55.845 1.51108e-08 
165 1 9.80936e-05 0.0356693 0.291083 55.845 -1.20799e-07 
166 1 4.87943e-05 0.0713918 0.332913 55.845 -4.72456e-08 
167 1 0.035747 0.0713749 0.291049 55.845 -1.41354e-07 
168 1 0.0357586 0.107076 0.33275 55.845 -3.39992e-08 
169 1 0.0714662 0.107047 0.291085 55.845 -8.11932e-08 
176 1 -1.19028e-06 -4.08632e-05 0.333004 55.845 3.43594e-08 
177 1 0.0356645 -6.96534e-05 0.291235 55.845 -1.74027e-07 
178 1 0.0356602 0.0357637 0.332956 55.845 -4.35161e-09 
179 1 0.0714127 0.0356247 0.291081 55.845 -1.22988e-07 
180 1 0.0714768 0.0714375 0.332801 55.845 4.66113e-08 
181 1 0.107253 0.0714467 0.2911 55.845 -1.04255e-07 
182 1 0.107094 0.107171 0.33281 55.845 1.07868e-07 
190 1 0.071357 8.14311e-06 0.332932 55.845 -4.39637e-08 
191 1 0.107196 -4.63647e-05 0.291061 55.845 -3.66005e-08 
192 1 0.107054 0.0356792 0.332888 55.845 3.19876e-09 
268 1 0.000105861 0.0713973 0.249492 55.845 4.13217e-08 
270 1 0.0356973 0.107107 0.249315 55.845 -4.96593e-08 
278 1 2.75573e-05 8.59985e-06 0.24948 55.845 2.42759e-07 
280 1 0.0358079 0.0357505 0.249401 55.845 1.28177e-07 
282 1 0.0714766 0.0713644 0.249414 55.845 1.01577e-07 
284 1 0.107131 0.107088 0.249327 55.845 9.57485e-08 
292 1 0.071356 -5.90877e-05 0.249536 55.845 1.60117e-07 
294 1 0.107079 0.0356586 0.249616 55.845 2.17291e-07 
16 1 0.142757 0.107178 0.458185 55.845 -1.52754e-07 
21 1 0.142866 0.0357197 0.458312 55.845 -2.24853e-07 
22 1 0.178566 0.071481 0.458264 55.845 -2.22796e-07 
23 1 0.214286 0.107118 0.458222 55.845 -1.93231e-07 
27 1 0.178583 -1.14978e-05 0.458246 55.845 -1.62798e-07 
28 1 0.214345 0.0357707 0.458222 55.845 -1.33185e-07 
29 1 0.250076 0.0714468 0.458308 55.845 -1.74033e-07 
81 1 0.142865 0.10711 0.374704 55.845 -2.13002e-07 
91 1 0.142922 0.0357633 0.37449 55.845 -1.15597e-07 
92 1 0.142873 0.0714119 0.416701 55.845 2.64868e-07 
93 1 0.178588 0.0714578 0.374583 55.845 -1.35782e-07 
94 1 0.178582 0.107167 0.416621 55.845 1.95799e-07 
95 1 0.214342 0.107151 0.374769 55.845 -2.36761e-07 
102 1 0.142843 7.92323e-05 0.416539 55.845 1.26892e-07 
103 1 0.178508 -3.11528e-05 0.374525 55.845 -9.48488e-08 
104 1 0.178539 0.0357069 0.416648 55.845 1.82605e-07 
105 1 0.214249 0.0356996 0.374708 55.845 -1.9038e-07 
106 1 0.214279 0.0714255 0.416702 55.845 1.74383e-07 
107 1 0.250045 0.0714511 0.374671 55.845 -2.89102e-07 
108 1 0.250007 0.107189 0.416703 55.845 7.98539e-08 
118 1 0.214243 -6.64845e-06 0.41659 55.845 1.08053e-07 
120 1 0.249977 0.0357189 0.416665 55.845 6.26217e-08 
183 1 0.142729 0.107154 0.291169 55.845 -1.06726e-07 
193 1 0.142862 0.0357265 0.291083 55.845 -9.95894e-08 
194 1 0.142824 0.0714095 0.332764 55.845 1.56667e-07 
195 1 0.178572 0.0715356 0.29107 55.845 -1.7616e-07 
196 1 0.178552 0.10722 0.332944 55.845 1.13207e-07 
197 1 0.214296 0.107069 0.291072 55.845 -1.57035e-07 
204 1 0.142847 -3.26941e-05 0.332746 55.845 -4.09224e-08 
205 1 0.178591 2.87843e-05 0.291063 55.845 -8.2167e-08 
206 1 0.178659 0.0357067 0.332753 55.845 1.03918e-07 
207 1 0.214383 0.0357891 0.290995 55.845 -8.70246e-08 
208 1 0.214361 0.0713849 0.332868 55.845 1.31194e-07 
209 1 0.25004 0.0713695 0.29101 55.845 -1.12568e-07 
210 1 0.24999 0.107113 0.332911 55.845 2.4245e-08 
220 1 0.214357 -8.77715e-05 0.332714 55.845 2.50012e-08 
222 1 0.250039 0.0356078 0.332934 55.845 6.00471e-08 
296 1 0.142928 0.0714229 0.249462 55.845 3.32035e-07 
298 1 0.178509 0.107137 0.24959 55.845 3.88258e-07 
306 1 0.142872 3.08778e-05 0.249501 55.845 2.00874e-07 
308 1 0.178631 0.0357557 0.249523 55.845 4.3251e-07 
310 1 0.214318 0.0714557 0.249564 55.845 4.01202e-07 
312 1 0.249978 0.107161 0.249464 55.845 1.69981e-07 
322 1 0.214313 -3.41848e-05 0.249521 55.845 2.94162e-07 
324 1 0.250044 0.035761 0.249558 55.845 2.0911e-07 
30 1 0.28566 0.107129 0.45814 55.845 -1.09513e-07 
35 1 0.249987 -5.53518e-05 0.45824 55.845 -9.8181e-08 
36 1 0.285726 0.0357348 0.458189 55.845 -7.50358e-08 
37 1 0.321473 0.0714603 0.458073 55.845 -6.19386e-08 
38 1 0.357236 0.107134 0.458023 55.845 -5.07113e-08 
42 1 0.321406 -1.80445e-05 0.458297 55.845 -8.14834e-08 
43 1 0.357132 0.0356598 0.458179 55.845 -1.761e-08 
109 1 0.285702 0.107041 0.374675 55.845 -3.42612e-07 
119 1 0.24999 -5.83871e-06 0.374648 55.845 -9.57504e-08 
121 1 0.285656 0.0356949 0.374754 55.845 -2.66145e-07 
122 1 0.285754 0.0713772 0.41664 55.845 7.56954e-08 
123 1 0.321446 0.0714656 0.374714 55.845 -2.88541e-07 
124 1 0.321432 0.10719 0.416657 55.845 8.83728e-08 
125 1 0.357088 0.107198 0.374699 55.845 -2.02602e-07 
133 1 0.321535 9.18271e-05 0.374754 55.845 -1.20631e-07 
134 1 0.32142 0.0357605 0.416834 55.845 8.07029e-08 
135 1 0.357126 0.0357699 0.374862 55.845 -1.82452e-07 
136 1 0.357169 0.0714593 0.416572 55.845 1.20193e-07 
211 1 0.285703 0.107129 0.291177 55.845 -7.61245e-08 
221 1 0.250035 -5.67045e-05 0.29101 55.845 -7.3776e-09 
223 1 0.285744 0.0356044 0.291051 55.845 -1.96658e-08 
224 1 0.285715 0.0713605 0.332832 55.845 4.03985e-08 
225 1 0.321425 0.0714462 0.29114 55.845 -2.56896e-08 
226 1 0.321419 0.107203 0.332826 55.845 7.8963e-09 
227 1 0.357143 0.107189 0.29106 55.845 -3.29075e-08 
235 1 0.321479 -1.35844e-05 0.291088 55.845 4.18632e-08 
236 1 0.321482 0.0357068 0.333031 55.845 1.57753e-08 
237 1 0.357187 0.0357236 0.291161 55.845 6.14143e-08 
238 1 0.357083 0.0714372 0.332874 55.845 2.92776e-08 
326 1 0.285704 0.0713631 0.249486 55.845 5.38164e-08 
328 1 0.321447 0.107162 0.249426 55.845 -1.93236e-08 
338 1 0.321502 0.0356926 0.249388 55.845 -3.39432e-08 
340 1 0.357153 0.071381 0.249556 55.845 -3.67573e-08 
44 1 0.392889 0.0714272 0.458157 55.845 1.57181e-08 
45 1 0.42858 0.107168 0.458287 55.845 -6.87862e-09 
47 1 0.392877 -7.17346e-05 0.458103 55.845 -3.84815e-08 
48 1 0.428569 0.0357639 0.458175 55.845 2.32417e-09 
49 1 0.464298 0.0714178 0.457966 55.845 -1.86129e-08 
50 1 0.464311 -4.67682e-05 0.458224 55.845 -6.08159e-08 
137 1 0.392945 0.0714013 0.374694 55.845 -1.51418e-07 
138 1 0.392896 0.107137 0.416479 55.845 9.57566e-08 
139 1 0.428607 0.107256 0.374622 55.845 -1.36818e-07 
144 1 0.392704 1.29986e-05 0.374562 55.845 -6.11699e-08 
145 1 0.392867 0.0356901 0.416652 55.845 1.66903e-07 
146 1 0.428593 0.0356803 0.374422 55.845 -6.7392e-08 
147 1 0.428593 0.0714077 0.416481 55.845 5.68804e-08 
148 1 0.464272 0.0713963 0.374644 55.845 -1.25489e-07 
149 1 0.464202 0.107215 0.416597 55.845 6.97803e-08 
150 1 0.428628 6.26771e-07 0.416457 55.845 3.73297e-08 
151 1 0.464302 1.54298e-05 0.374491 55.845 4.38877e-08 
152 1 0.464284 0.0356807 0.41651 55.845 5.28569e-08 
239 1 0.392795 0.0714376 0.291156 55.845 6.11935e-08 
240 1 0.392905 0.107101 0.332978 55.845 -9.33107e-08 
241 1 0.42852 0.107224 0.291005 55.845 -9.89322e-09 
246 1 0.392823 -4.17864e-05 0.290973 55.845 9.27505e-08 
247 1 0.392851 0.035761 0.33287 55.845 -2.65692e-08 
248 1 0.428602 0.035764 0.290967 55.845 5.32976e-08 
249 1 0.428542 0.071471 0.332758 55.845 -5.59249e-08 
250 1 0.464294 0.0714468 0.290897 55.845 -2.03555e-08 
251 1 0.464349 0.107125 0.332744 55.845 -9.59503e-08 
252 1 0.428465 -3.22076e-05 0.332846 55.845 -1.12748e-07 
253 1 0.464302 -3.42895e-05 0.291042 55.845 3.43521e-08 
254 1 0.464288 0.0357082 0.332843 55.845 -1.88288e-07 
342 1 0.392794 0.107072 0.249511 55.845 1.316e-08 
349 1 0.392741 0.0357273 0.24954 55.845 -1.09969e-08 
351 1 0.428541 0.0714541 0.249411 55.845 1.31025e-09 
353 1 0.464228 0.107227 0.249479 55.845 1.0119e-08 
354 1 0.428529 -5.70364e-05 0.249615 55.845 6.08948e-08 
356 1 0.464323 0.0357032 0.249352 55.845 1.04141e-07 
1 1 7.26742e-05 0.178577 0.458271 55.845 9.59353e-08 
2 1 0.0357748 0.214211 0.458179 55.845 -7.95737e-08 
4 1 0.0356552 0.142867 0.458264 55.845 7.86518e-08 
5 1 0.0714871 0.178522 0.458108 55.845 1.39131e-08 
6 1 0.10715 0.214283 0.458256 55.845 -1.32411e-07 
10 1 0.107176 0.14281 0.458275 55.845 -6.87953e-08 
51 1 7.57986e-06 0.178537 0.374716 55.845 -1.80807e-07 
52 1 4.18524e-05 0.214296 0.416541 55.845 3.55923e-08 
53 1 0.0356469 0.214201 0.374568 55.845 -2.50223e-07 
54 1 0.0357073 0.249919 0.41651 55.845 8.47064e-08 
56 1 -2.21835e-05 0.142915 0.41657 55.845 2.98612e-08 
57 1 0.035739 0.14281 0.374691 55.845 -1.95192e-07 
58 1 0.035794 0.178498 0.416556 55.845 7.32292e-08 
59 1 0.0715133 0.178495 0.374787 55.845 -2.73597e-07 
60 1 0.0714454 0.214226 0.41669 55.845 1.0571e-07 
61 1 0.10705 0.214297 0.37474 55.845 -1.70194e-07 
62 1 0.107141 0.250089 0.41667 55.845 5.43779e-08 
68 1 0.071473 0.142744 0.416686 55.845 1.92064e-07 
69 1 0.107308 0.142873 0.374699 55.845 -2.62864e-07 
70 1 0.10715 0.178599 0.416673 55.845 1.49137e-07 
153 1 3.53696e-05 0.178508 0.291047 55.845 -4.24274e-08 
154 1 -2.84404e-05 0.214242 0.332884 55.845 -2.20912e-09 
155 1 0.0357815 0.2143 0.291088 55.845 -1.74533e-07 
156 1 0.0357001 0.249967 0.33294 55.845 2.75417e-08 
158 1 -2.3947e-05 0.142856 0.332928 55.845 -1.73039e-08 
159 1 0.0357086 0.142749 0.290931 55.845 -3.91513e-08 
160 1 0.0357427 0.17851 0.33285 55.845 -8.95451e-08 
161 1 0.0714824 0.178551 0.291044 55.845 -9.05943e-08 
162 1 0.0714379 0.214268 0.332889 55.845 -5.35219e-08 
163 1 0.107077 0.214275 0.290999 55.845 -1.33191e-07 
164 1 0.107206 0.249999 0.332926 55.845 -5.0854e-08 
170 1 0.0715057 0.142811 0.332927 55.845 2.92772e-08 
171 1 0.107111 0.142789 0.291125 55.845 -1.05065e-07 
172 1 0.1072 0.178628 0.332949 55.845 -1.149e-08 
256 1 3.12289e-05 0.214188 0.249475 55.845 1.23001e-07 
258 1 0.0357782 0.249983 0.249513 55.845 2.72324e-07 
260 1 7.34161e-06 0.142791 0.249556 55.845 -1.34169e-07 
262 1 0.0357074 0.178525 0.249537 55.845 -5.28274e-08 
264 1 0.0713492 0.214242 0.249316 55.845 6.96424e-08 
266 1 0.107131 0.24988 0.249491 55.845 2.53726e-07 
272 1 0.0714513 0.142831 0.249339 55.845 -7.46358e-08 
274 1 0.107118 0.178561 0.249446 55.845 3.90699e-08 
11 1 0.142914 0.178601 0.458255 55.845 -1.0982e-07 
12 1 0.178586 0.214312 0.458175 55.845 -1.33738e-07 
17 1 0.178594 0.14288 0.458241 55.845 -2.26377e-07 
18 1 0.214313 0.178568 0.458208 55.845 -1.25983e-07 
19 1 0.249995 0.214299 0.457955 55.845 -5.21282e-08 
24 1 0.250037 0.142838 0.458242 55.845 -1.28729e-07 
71 1 0.1429 0.178507 0.37479 55.845 -2.15095e-07 
72 1 0.142858 0.21434 0.416634 55.845 1.45752e-07 
73 1 0.178504 0.214285 0.374689 55.845 -1.72865e-07 
82 1 0.14294 0.142902 0.416772 55.845 2.26106e-07 
83 1 0.178577 0.142834 0.374785 55.845 -2.01267e-07 
84 1 0.178592 0.178619 0.416653 55.845 7.7151e-08 
85 1 0.214303 0.178487 0.374861 55.845 -1.69186e-07 
86 1 0.214352 0.214286 0.416585 55.845 6.88454e-08 
87 1 0.249953 0.21427 0.374641 55.845 -2.01978e-07 
96 1 0.21434 0.142882 0.416732 55.845 7.20835e-08 
97 1 0.250014 0.142844 0.374709 55.845 -2.79783e-07 
98 1 0.25011 0.178581 0.416619 55.845 4.20428e-08 
173 1 0.14286 0.178592 0.290982 55.845 -7.41374e-08 
174 1 0.142773 0.214163 0.332901 55.845 -4.12594e-08 
175 1 0.178567 0.214338 0.291099 55.845 -2.57274e-08 
184 1 0.142813 0.142828 0.332794 55.845 7.73807e-08 
185 1 0.178543 0.142789 0.291029 55.845 -1.36237e-07 
186 1 0.178579 0.17854 0.333105 55.845 -1.05951e-08 
187 1 0.214239 0.178504 0.291062 55.845 -1.36845e-07 
188 1 0.214277 0.214204 0.332923 55.845 1.62617e-10 
189 1 0.250018 0.214252 0.291152 55.845 -2.46181e-08 
198 1 0.214313 0.142824 0.332833 55.845 8.82286e-09 
199 1 0.249933 0.142757 0.29121 55.845 -1.11046e-07 
200 1 0.249999 0.178503 0.332944 55.845 7.18778e-09 
276 1 0.142854 0.214168 0.249546 55.845 1.59444e-07 
286 1 0.14283 0.142793 0.249438 55.845 2.0628e-07 
288 1 0.178554 0.17859 0.249497 55.845 2.08508e-07 
290 1 0.214267 0.214278 0.24938 55.845 1.46567e-07 
300 1 0.214243 0.142832 0.249437 55.845 2.84723e-07 
302 1 0.24991 0.178486 0.249438 55.845 5.9859e-08 
25 1 0.285817 0.178518 0.458167 55.845 1.66543e-09 
26 1 0.321419 0.214236 0.458102 55.845 -4.29949e-08 
31 1 0.321519 0.14275 0.458124 55.845 6.27342e-09 
32 1 0.356996 0.178493 0.458114 55.845 -3.1259e-08 
99 1 0.285799 0.178599 0.37452 55.845 -2.61509e-07 
100 1 0.285647 0.214232 0.416372 55.845 1.3252e-07 
101 1 0.321488 0.214305 0.374426 55.845 -8.37054e-08 
110 1 0.285752 0.142854 0.416681 55.845 9.4672e-08 
111 1 0.321428 0.142879 0.37455 55.845 -2.82909e-07 
112 1 0.32145 0.178462 0.416469 55.845 9.1055e-08 
113 1 0.357123 0.178502 0.374625 55.845 -1.571e-07 
114 1 0.357115 0.214258 0.416524 55.845 6.62119e-08 
126 1 0.357157 0.14278 0.416488 55.845 5.50335e-08 
201 1 0.285658 0.178546 0.29091 55.845 -1.98054e-08 
202 1 0.285684 0.214219 0.332733 55.845 5.29172e-10 
203 1 0.321456 0.214294 0.290936 55.845 4.2686e-08 
212 1 0.28564 0.14276 0.332899 55.845 5.42861e-08 
213 1 0.321306 0.142858 0.290847 55.845 -5.12304e-08 
214 1 0.321472 0.178522 0.332619 55.845 -2.02307e-08 
215 1 0.357104 0.17855 0.29083 55.845 1.50365e-08 