ITEM: TIMESTEP
1000
ITEM: NUMBER OF ATOMS
5880
ITEM: BOX BOUNDS pp pp ff
-27.9588 27.9588
-27.9588 27.9588
0 34.092
ITEM: ATOMS id type xs ys zs mass q 
259 1 -3.28313e-05 0.10719 0.208982 55.845 3.38088e-07 
267 1 -4.48675e-05 0.0357538 0.208828 55.845 2.93082e-08 
269 1 0.0356213 0.0713797 0.208939 55.845 4.53561e-08 
271 1 0.0713909 0.107116 0.208971 55.845 -4.77833e-08 
279 1 0.0357106 3.73981e-05 0.208969 55.845 -1.59248e-07 
281 1 0.0714577 0.0357327 0.208976 55.845 -4.15131e-07 
283 1 0.107101 0.0714321 0.208903 55.845 4.51481e-08 
293 1 0.107127 3.16365e-05 0.208895 55.845 -2.30282e-07 
361 1 1.12558e-05 0.107197 0.125407 55.845 1.15536e-07 
369 1 5.06313e-07 0.0358019 0.125309 55.845 -3.10951e-08 
370 1 -4.50035e-05 0.0714816 0.166993 55.845 4.35258e-07 
371 1 0.0357032 0.0714056 0.125325 55.845 8.43187e-08 
372 1 0.0356633 0.107104 0.167008 55.845 4.29323e-07 
373 1 0.0713801 0.107106 0.125305 55.845 1.66196e-07 
380 1 -1.43426e-05 -8.24564e-06 0.167039 55.845 1.52675e-07 
381 1 0.035689 -1.17029e-05 0.125203 55.845 -3.89454e-07 
382 1 0.0357194 0.0356461 0.167056 55.845 -4.39437e-08 
383 1 0.0714304 0.0357275 0.12529 55.845 8.93647e-08 
384 1 0.0713693 0.0714466 0.167013 55.845 1.45098e-07 
385 1 0.107177 0.0714595 0.125296 55.845 3.85995e-07 
386 1 0.107084 0.107138 0.16707 55.845 4.01136e-07 
394 1 0.0714076 1.12501e-05 0.167078 55.845 -2.98619e-07 
395 1 0.107088 -1.49117e-05 0.125426 55.845 -1.83424e-07 
396 1 0.107128 0.0357147 0.167022 55.845 9.7296e-08 
463 1 0 0.107143 0.0416667 55.845 4.99964e-08 
471 1 0 0.0357143 0.0416667 55.845 -4.02492e-07 
472 1 2.76069e-05 0.0714369 0.0839366 55.845 7.14434e-08 
473 1 0.0357143 0.0714286 0.0416667 55.845 -2.75827e-07 
474 1 0.0357195 0.107095 0.0840945 55.845 4.35888e-08 
475 1 0.0714286 0.107143 0.0416667 55.845 -2.63526e-07 
482 1 3.38446e-05 -2.17851e-05 0.084022 55.845 -1.5158e-07 
483 1 0.0357143 0 0.0416667 55.845 -1.51409e-07 
484 1 0.0357361 0.0356783 0.0839339 55.845 -1.49522e-07 
485 1 0.0714286 0.0357143 0.0416667 55.845 -3.0265e-07 
486 1 0.0714101 0.0714199 0.0838962 55.845 1.70384e-07 
487 1 0.107143 0.0714286 0.0416667 55.845 -2.4248e-07 
488 1 0.107161 0.107176 0.0839392 55.845 -7.24471e-08 
496 1 0.0714764 2.02976e-05 0.0840489 55.845 -7.03737e-08 
497 1 0.107143 0 0.0416667 55.845 -1.37642e-07 
498 1 0.107153 0.0357113 0.0840075 55.845 1.56197e-07 
567 1 0 0.0714286 0 55.845 -8.37165e-08 
568 1 0.0357143 0.107143 0 55.845 1.04201e-07 
572 1 0 0 0 55.845 -1.28196e-08 
573 1 0.0357143 0.0357143 0 55.845 -1.6174e-07 
574 1 0.0714286 0.0714286 0 55.845 -1.39662e-07 
575 1 0.107143 0.107143 0 55.845 1.95799e-07 
579 1 0.0714286 0 0 55.845 1.8879e-07 
580 1 0.107143 0.0357143 0 55.845 1.43248e-07 
285 1 0.142759 0.107191 0.208993 55.845 -4.57369e-08 
295 1 0.142802 0.0357641 0.208942 55.845 2.83807e-07 
297 1 0.178538 0.0714546 0.208999 55.845 2.47697e-08 
299 1 0.214345 0.107159 0.208954 55.845 -6.97045e-09 
307 1 0.178575 4.25578e-05 0.209 55.845 9.08094e-08 
309 1 0.214329 0.0356805 0.208995 55.845 -4.62029e-07 
311 1 0.249988 0.0713202 0.209011 55.845 3.79081e-08 
387 1 0.142809 0.10718 0.125475 55.845 5.50357e-08 
397 1 0.14289 0.0356997 0.125338 55.845 2.78945e-08 
398 1 0.142801 0.0714703 0.167053 55.845 4.54303e-07 
399 1 0.17856 0.0714559 0.125524 55.845 1.94981e-07 
400 1 0.178525 0.107132 0.167239 55.845 3.38552e-07 
401 1 0.214277 0.107096 0.125327 55.845 -2.26367e-07 
408 1 0.142919 8.34168e-06 0.167088 55.845 1.36976e-07 
409 1 0.178605 5.12724e-05 0.125393 55.845 -2.62943e-07 
410 1 0.178535 0.0357458 0.167039 55.845 3.24088e-08 
411 1 0.214349 0.0357364 0.12542 55.845 7.47406e-08 
412 1 0.214311 0.0714439 0.167078 55.845 1.41769e-07 
413 1 0.249959 0.0714548 0.125275 55.845 -1.47754e-07 
414 1 0.250041 0.107134 0.167042 55.845 2.03791e-07 
424 1 0.214329 2.59045e-05 0.167034 55.845 -4.85859e-08 
426 1 0.249959 0.0356622 0.167068 55.845 -1.00666e-07 
489 1 0.142857 0.107143 0.0416667 55.845 -1.79078e-07 
499 1 0.142857 0.0357143 0.0416667 55.845 -3.02579e-08 
500 1 0.142877 0.0714368 0.0840793 55.845 -8.81305e-09 
501 1 0.178571 0.0714286 0.0416667 55.845 3.08102e-08 
502 1 0.17857 0.107131 0.0841142 55.845 -9.59327e-08 
503 1 0.214286 0.107143 0.0416667 55.845 6.31934e-08 
510 1 0.142849 2.11554e-05 0.084018 55.845 -2.34257e-08 
511 1 0.178571 0 0.0416667 55.845 -1.71981e-07 
512 1 0.178605 0.0357244 0.0839639 55.845 -7.62057e-09 
513 1 0.214286 0.0357143 0.0416667 55.845 -1.86989e-07 
514 1 0.214252 0.0714416 0.0839453 55.845 6.46556e-09 
515 1 0.25 0.0714286 0.0416667 55.845 1.42855e-07 
516 1 0.249998 0.107162 0.084016 55.845 -1.2514e-07 
526 1 0.214239 -6.3821e-06 0.0840568 55.845 -1.39938e-07 
528 1 0.249998 0.0357194 0.0840483 55.845 2.25409e-07 
581 1 0.142857 0.0714286 0 55.845 1.21456e-07 
582 1 0.178571 0.107143 0 55.845 1.64686e-07 
586 1 0.142857 0 0 55.845 1.58207e-07 
587 1 0.178571 0.0357143 0 55.845 7.12597e-08 
588 1 0.214286 0.0714286 0 55.845 3.22776e-07 
589 1 0.25 0.107143 0 55.845 2.2025e-07 
594 1 0.214286 0 0 55.845 1.70307e-07 
595 1 0.25 0.0357143 0 55.845 3.57596e-08 
313 1 0.28565 0.107138 0.208867 55.845 -2.7243e-07 
323 1 0.250037 -5.88291e-05 0.209076 55.845 -2.72862e-07 
325 1 0.285818 0.035739 0.208951 55.845 -3.95506e-08 
327 1 0.321441 0.071448 0.208929 55.845 1.43736e-07 
329 1 0.357174 0.107126 0.209002 55.845 1.0283e-07 
337 1 0.321426 0.000112869 0.20895 55.845 -6.83415e-08 
339 1 0.357157 0.0356968 0.20894 55.845 -8.97798e-08 
415 1 0.285732 0.107171 0.125423 55.845 2.22419e-07 
425 1 0.249999 7.28174e-05 0.125304 55.845 -1.3263e-08 
427 1 0.285726 0.0357493 0.125289 55.845 -3.91238e-08 
428 1 0.285646 0.0713993 0.167054 55.845 -3.49502e-08 
429 1 0.321484 0.0714536 0.125397 55.845 4.45562e-07 
430 1 0.321407 0.107145 0.167062 55.845 -7.14888e-09 
431 1 0.357159 0.10716 0.125353 55.845 -1.95202e-08 
439 1 0.321368 5.26289e-06 0.125325 55.845 9.73469e-08 
440 1 0.321441 0.0356947 0.167092 55.845 2.77649e-07 
441 1 0.357132 0.0357215 0.125416 55.845 2.426e-07 
442 1 0.357137 0.0714087 0.16706 55.845 2.45754e-07 
517 1 0.285714 0.107143 0.0416667 55.845 -1.48109e-07 
527 1 0.25 0 0.0416667 55.845 -3.21697e-07 
529 1 0.285714 0.0357143 0.0416667 55.845 -2.05153e-07 
530 1 0.285698 0.0714384 0.0840429 55.845 2.65775e-07 
531 1 0.321429 0.0714286 0.0416667 55.845 -2.26902e-07 
532 1 0.321456 0.107172 0.0839869 55.845 -3.19416e-07 
533 1 0.357143 0.107143 0.0416667 55.845 -1.75922e-07 
603 1 0.357143 0.0714286 0 55.845 -1.465e-08 
541 1 0.321429 0 0.0416667 55.845 -5.50725e-07 
542 1 0.321472 0.0357272 0.0840787 55.845 2.99917e-08 
543 1 0.357143 0.0357143 0.0416667 55.845 -4.15075e-07 
544 1 0.357218 0.0713875 0.0841049 55.845 -2.46493e-07 
602 1 0.321429 0.0357143 0 55.845 1.11387e-07 
596 1 0.285714 0.0714286 0 55.845 -4.06219e-08 
597 1 0.321429 0.107143 0 55.845 2.01456e-07 
612 1 0.464286 0.0357143 0 55.845 4.0548e-07 
611 1 0.428571 0 0 55.845 1.72524e-07 
610 1 0.464286 0.107143 0 55.845 -1.11203e-07 
609 1 0.428571 0.0714286 0 55.845 -2.78524e-08 
608 1 0.392857 0.0357143 0 55.845 -3.14919e-07 
341 1 0.392816 0.0714331 0.2089 55.845 2.69084e-07 
343 1 0.428566 0.107183 0.208983 55.845 1.55471e-07 
348 1 0.392863 -3.2269e-05 0.208917 55.845 -2.27342e-08 
350 1 0.428569 0.0356792 0.208972 55.845 6.23857e-08 
352 1 0.464286 0.0713505 0.208889 55.845 3.29497e-08 
355 1 0.464289 -1.6288e-05 0.208926 55.845 -3.00869e-07 
443 1 0.392898 0.0714113 0.125436 55.845 -3.29499e-08 
444 1 0.392822 0.107126 0.166925 55.845 3.15946e-07 
445 1 0.42858 0.107078 0.125272 55.845 -1.16079e-07 
604 1 0.392857 0.107143 0 55.845 -4.8357e-07 
450 1 0.392851 2.39708e-05 0.125363 55.845 -1.48741e-07 
451 1 0.392873 0.0357323 0.167195 55.845 2.80275e-07 
452 1 0.42852 0.0357943 0.125424 55.845 -1.24877e-07 
453 1 0.428617 0.0714565 0.167176 55.845 1.73679e-07 
454 1 0.464301 0.0713789 0.125399 55.845 9.73739e-08 
455 1 0.464262 0.107074 0.167046 55.845 1.74055e-07 
456 1 0.428532 2.02442e-05 0.167068 55.845 5.76832e-08 
457 1 0.464255 -7.24456e-07 0.125495 55.845 6.2338e-09 
458 1 0.464274 0.0356712 0.167049 55.845 -1.27538e-07 
545 1 0.392857 0.0714286 0.0416667 55.845 -4.76546e-07 
546 1 0.392817 0.107177 0.0839721 55.845 -7.32187e-08 
547 1 0.428571 0.107143 0.0416667 55.845 -3.42032e-07 
552 1 0.392857 0 0.0416667 55.845 -2.91399e-07 
553 1 0.39287 0.0357146 0.0839251 55.845 -7.57933e-08 
554 1 0.428571 0.0357143 0.0416667 55.845 -2.52293e-07 
555 1 0.428618 0.0714357 0.0840382 55.845 -1.17725e-07 
556 1 0.464286 0.0714286 0.0416667 55.845 -2.85177e-07 
557 1 0.464284 0.107177 0.0839457 55.845 -1.6525e-07 
558 1 0.42863 6.09973e-05 0.0840505 55.845 -5.03498e-09 
559 1 0.464286 0 0.0416667 55.845 -4.16066e-08 
560 1 0.464264 0.0357401 0.0840175 55.845 -3.21533e-08 
255 1 -4.99132e-05 0.178538 0.209024 55.845 2.30284e-08 
257 1 0.0356961 0.214232 0.209021 55.845 -2.36076e-08 
261 1 0.0357688 0.142741 0.209026 55.845 1.43231e-07 
263 1 0.0714425 0.178551 0.209041 55.845 -9.53817e-08 
265 1 0.107187 0.214329 0.208899 55.845 -1.82674e-07 
273 1 0.107213 0.142878 0.209041 55.845 -5.94248e-08 
357 1 -9.56209e-07 0.178593 0.125384 55.845 1.48817e-08 
358 1 -1.29153e-05 0.214249 0.167148 55.845 1.46992e-07 
359 1 0.0356143 0.214241 0.125354 55.845 1.24328e-07 
360 1 0.035609 0.250007 0.167062 55.845 -1.11828e-07 
362 1 -3.95275e-06 0.142869 0.167086 55.845 2.68181e-07 
363 1 0.0357508 0.142861 0.125419 55.845 6.31312e-08 
364 1 0.0357332 0.17853 0.167119 55.845 5.80528e-08 
365 1 0.0714257 0.178469 0.12538 55.845 -7.64043e-08 
366 1 0.0714274 0.214278 0.167044 55.845 -8.80012e-08 
367 1 0.107149 0.214302 0.125318 55.845 1.35636e-07 
368 1 0.107119 0.249982 0.166996 55.845 8.10965e-08 
374 1 0.0714534 0.142851 0.167076 55.845 1.03492e-07 
375 1 0.107173 0.142827 0.12529 55.845 -1.08826e-07 
376 1 0.107166 0.178558 0.166942 55.845 2.78424e-07 
459 1 0 0.178571 0.0416667 55.845 -1.13031e-07 
460 1 1.95433e-05 0.21428 0.0839383 55.845 -2.01098e-08 
461 1 0.0357143 0.214286 0.0416667 55.845 -1.62741e-07 
462 1 0.0357349 0.249999 0.0839568 55.845 5.03622e-08 
464 1 3.15233e-05 0.14283 0.0839078 55.845 1.01477e-07 
465 1 0.0357143 0.142857 0.0416667 55.845 -3.11113e-07 
466 1 0.0357179 0.178547 0.084142 55.845 -1.38006e-07 
467 1 0.0714286 0.178571 0.0416667 55.845 -2.00348e-07 
468 1 0.0714234 0.214277 0.0840491 55.845 -1.16169e-07 
469 1 0.107143 0.214286 0.0416667 55.845 -2.75583e-08 
470 1 0.107172 0.24998 0.0840439 55.845 -5.19307e-08 
476 1 0.0713874 0.142803 0.0839635 55.845 -1.09787e-07 
477 1 0.107143 0.142857 0.0416667 55.845 -2.53389e-07 
478 1 0.107166 0.178607 0.0840178 55.845 -3.41811e-08 
561 1 0 0.214286 0 55.845 1.98441e-07 
562 1 0.0357143 0.25 0 55.845 3.54573e-07 
563 1 0 0.142857 0 55.845 2.41455e-07 
564 1 0.0357143 0.178571 0 55.845 3.66134e-08 
565 1 0.0714286 0.214286 0 55.845 1.29746e-08 
566 1 0.107143 0.25 0 55.845 2.88963e-07 
569 1 0.0714286 0.142857 0 55.845 -2.24361e-07 
570 1 0.107143 0.178571 0 55.845 -1.36409e-07 
275 1 0.142915 0.178571 0.208873 55.845 -2.42827e-07 
277 1 0.178569 0.214248 0.209009 55.845 -2.10924e-07 
287 1 0.178564 0.142828 0.208916 55.845 -2.9495e-07 
289 1 0.214301 0.178627 0.209033 55.845 -2.37205e-07 
291 1 0.250057 0.214226 0.20894 55.845 8.69069e-08 
301 1 0.250006 0.142804 0.208822 55.845 -1.80268e-07 
377 1 0.142862 0.178675 0.125442 55.845 -1.44221e-07 
378 1 0.14288 0.21426 0.167007 55.845 2.81202e-07 
379 1 0.178585 0.214311 0.125447 55.845 1.22792e-07 
388 1 0.142845 0.142894 0.166912 55.845 3.89127e-07 
389 1 0.178547 0.142736 0.125456 55.845 -1.08631e-07 
390 1 0.17865 0.178564 0.167008 55.845 2.13586e-07 
391 1 0.214277 0.178608 0.125342 55.845 -8.88841e-08 
392 1 0.214249 0.214316 0.167095 55.845 1.2578e-07 
393 1 0.250001 0.214288 0.125406 55.845 2.65805e-07 
402 1 0.214339 0.142853 0.167121 55.845 5.14516e-08 
403 1 0.249981 0.14279 0.125281 55.845 -1.71545e-07 
404 1 0.250005 0.178561 0.167009 55.845 -7.47117e-08 
479 1 0.142857 0.178571 0.0416667 55.845 -8.33253e-08 
480 1 0.142914 0.214307 0.0839351 55.845 1.84922e-07 
481 1 0.178571 0.214286 0.0416667 55.845 -3.48442e-08 
490 1 0.142819 0.142903 0.0839806 55.845 -2.78888e-07 
491 1 0.178571 0.142857 0.0416667 55.845 -5.88427e-08 
492 1 0.178537 0.178604 0.0841172 55.845 -6.73691e-08 
493 1 0.214286 0.178571 0.0416667 55.845 -7.75053e-08 
494 1 0.214309 0.214283 0.0840298 55.845 1.76844e-08 
495 1 0.25 0.214286 0.0416667 55.845 -3.91425e-07 
504 1 0.214228 0.142855 0.0840198 55.845 -1.01982e-07 
505 1 0.25 0.142857 0.0416667 55.845 5.80939e-08 
506 1 0.249991 0.178562 0.0840451 55.845 -9.62513e-08 
571 1 0.142857 0.214286 0 55.845 4.75377e-08 
576 1 0.142857 0.142857 0 55.845 1.18505e-07 
577 1 0.178571 0.178571 0 55.845 1.14154e-07 
578 1 0.214286 0.214286 0 55.845 1.43151e-07 
583 1 0.214286 0.142857 0 55.845 1.18559e-07 
584 1 0.25 0.178571 0 55.845 1.51921e-08 
303 1 0.285753 0.178502 0.208958 55.845 -2.31876e-07 
305 1 0.321432 0.214343 0.208925 55.845 -1.50126e-07 
315 1 0.321415 0.142863 0.20894 55.845 -2.6699e-08 
317 1 0.357195 0.178602 0.209011 55.845 -1.08398e-07 
405 1 0.285762 0.178587 0.125321 55.845 2.34174e-08 
406 1 0.285784 0.214275 0.167042 55.845 1.78768e-08 
407 1 0.321493 0.21424 0.125316 55.845 4.27108e-08 
416 1 0.28579 0.142849 0.16695 55.845 5.8391e-08 
417 1 0.321491 0.142851 0.125487 55.845 -2.30062e-07 
418 1 0.321445 0.178583 0.167181 55.845 2.50902e-07 
419 1 0.357124 0.178579 0.125454 55.845 -3.66731e-08 
420 1 0.357191 0.214343 0.167051 55.845 1.515e-07 
432 1 0.357211 0.142869 0.167146 55.845 3.07942e-07 
507 1 0.285714 0.178571 0.0416667 55.845 -1.75727e-07 
508 1 0.285735 0.214259 0.0839983 55.845 2.45292e-07 
509 1 0.321429 0.214286 0.0416667 55.845 -5.64711e-08 
518 1 0.285753 0.142857 0.0840229 55.845 -1.42114e-07 
519 1 0.321429 0.142857 0.0416667 55.845 -5.55414e-08 
520 1 0.321418 0.178518 0.0840493 55.845 -7.60945e-08 
521 1 0.357143 0.178571 0.0416667 55.845 4.63914e-08 
522 1 0.357156 0.214303 0.08396 55.845 -7.04296e-08 
534 1 0.357089 0.142879 0.0840387 55.845 1.16676e-07 
585 1 0.285714 0.214286 0 55.845 1.25484e-07 
590 1 0.285714 0.142857 0 55.845 2.17202e-07 
591 1 0.321429 0.178571 0 55.845 2.30432e-07 
592 1 0.357143 0.214286 0 55.845 4.09238e-07 
598 1 0.357143 0.142857 0 55.845 -9.92987e-08 
319 1 0.392878 0.214231 0.208967 55.845 -7.61199e-08 
321 1 0.428585 0.249969 0.209035 55.845 -2.96373e-07 
331 1 0.392929 0.142829 0.208947 55.845 1.3395e-07 
333 1 0.428545 0.178542 0.208959 55.845 -5.4975e-08 
335 1 0.464275 0.214259 0.209046 55.845 -2.91434e-07 
345 1 0.46416 0.142854 0.208926 55.845 -1.49641e-07 
606 1 0.464286 0.178571 0 55.845 -6.73607e-08 
421 1 0.392926 0.214253 0.125275 55.845 1.00843e-07 
422 1 0.392878 0.249976 0.167104 55.845 -9.40752e-08 
423 1 0.428606 0.249992 0.125336 55.845 -6.11753e-08 
433 1 0.39283 0.142886 0.125387 55.845 -1.98706e-07 
434 1 0.392894 0.178582 0.167016 55.845 2.23503e-07 
435 1 0.428597 0.178585 0.125318 55.845 -3.49637e-08 
436 1 0.428582 0.214308 0.167115 55.845 2.96366e-07 
437 1 0.464315 0.214284 0.125429 55.845 2.29558e-07 
605 1 0.428571 0.142857 0 55.845 -1.75243e-08 
446 1 0.428568 0.142771 0.166837 55.845 1.23191e-07 
447 1 0.464224 0.142797 0.125314 55.845 2.20965e-07 
448 1 0.464228 0.178558 0.166946 55.845 4.21537e-07 
523 1 0.392857 0.214286 0.0416667 55.845 -6.94693e-08 
524 1 0.392828 0.249969 0.0839876 55.845 -1.98064e-07 
525 1 0.428571 0.25 0.0416667 55.845 -2.52376e-07 
535 1 0.392857 0.142857 0.0416667 55.845 -4.91001e-07 
536 1 0.392827 0.178556 0.0839713 55.845 -1.56398e-07 
537 1 0.428571 0.178571 0.0416667 55.845 -3.66152e-07 
538 1 0.428565 0.214289 0.0840413 55.845 -1.69148e-07 
539 1 0.464286 0.214286 0.0416667 55.845 -3.13775e-07 
548 1 0.428518 0.142879 0.0840598 55.845 6.7252e-08 
549 1 0.464286 0.142857 0.0416667 55.845 -1.07763e-07 
550 1 0.464259 0.17853 0.0840206 55.845 -9.26034e-08 
593 1 0.392857 0.25 0 55.845 3.76447e-07 
599 1 0.392857 0.178571 0 55.845 1.02332e-07 
600 1 0.428571 0.214286 0 55.845 -5.26289e-08 
3 1 5.62944e-05 0.107143 0.461044 55.845 -2.25128e-09 
7 1 1.47546e-05 0.0357629 0.461079 55.845 -1.12378e-07 
8 1 0.0356583 0.0713575 0.461097 55.845 7.63764e-08 
9 1 0.0713949 0.107086 0.461095 55.845 -1.70978e-07 
13 1 0.0357204 8.67862e-05 0.461006 55.845 -3.17035e-07 
14 1 0.0714223 0.0356934 0.461076 55.845 -4.62823e-07 
15 1 0.107185 0.0713591 0.461109 55.845 -1.15801e-07 
20 1 0.107171 -2.05786e-05 0.460969 55.845 -3.28921e-07 
55 1 -6.79773e-05 0.107212 0.377265 55.845 -3.32781e-08 
63 1 -0.000118062 0.0357919 0.37738 55.845 -2.4233e-07 
64 1 -4.9046e-05 0.0714386 0.41916 55.845 5.70187e-07 
65 1 0.0356396 0.0713848 0.377237 55.845 -9.5604e-08 
66 1 0.0357002 0.107075 0.419073 55.845 4.85197e-07 
67 1 0.071452 0.107071 0.377249 55.845 -2.85147e-07 
74 1 2.52045e-05 -2.14216e-05 0.419174 55.845 1.47835e-07 
75 1 0.0357267 2.28401e-05 0.377175 55.845 -1.35285e-07 
76 1 0.0356782 0.0357149 0.41916 55.845 3.4432e-07 
77 1 0.0714175 0.0357431 0.377265 55.845 -3.0684e-07 
78 1 0.071454 0.0714254 0.419161 55.845 6.49017e-07 
79 1 0.107218 0.0714695 0.377287 55.845 8.79681e-08 
80 1 0.107146 0.107139 0.419264 55.845 2.03223e-07 
88 1 0.0713802 -2.07179e-05 0.419189 55.845 2.23796e-07 
89 1 0.107219 4.20385e-05 0.377254 55.845 -1.42718e-07 
90 1 0.107129 0.0357147 0.419129 55.845 4.11892e-07 
157 1 -4.16015e-05 0.107167 0.29377 55.845 -9.81488e-09 
165 1 -6.40889e-05 0.0357454 0.293818 55.845 -3.17531e-07 
166 1 -6.49361e-05 0.0714407 0.33563 55.845 1.91689e-07 
167 1 0.0356677 0.0714034 0.293776 55.845 -2.57274e-07 
168 1 0.0357343 0.107121 0.335634 55.845 -9.04897e-08 
169 1 0.0713528 0.107144 0.293761 55.845 -2.57246e-07 
176 1 -4.86753e-05 6.95993e-06 0.335723 55.845 -2.0813e-07 
177 1 0.0357663 4.01865e-05 0.293768 55.845 -2.20264e-07 
178 1 0.0356592 0.0356942 0.33561 55.845 -2.45373e-07 
179 1 0.0714417 0.0356936 0.293815 55.845 -1.16645e-07 
180 1 0.0714538 0.0713795 0.33566 55.845 2.64741e-08 
181 1 0.107148 0.071441 0.293696 55.845 -1.10091e-07 
182 1 0.107118 0.10711 0.335712 55.845 -1.9498e-07 
190 1 0.0715047 -1.29531e-05 0.335814 55.845 -2.921e-07 
191 1 0.107123 -2.93031e-05 0.293708 55.845 8.35796e-09 
192 1 0.107173 0.0357004 0.335639 55.845 5.95656e-08 
268 1 -5.69427e-05 0.07145 0.251531 55.845 -1.82679e-07 
270 1 0.0356716 0.107134 0.251507 55.845 3.17505e-08 
278 1 2.39684e-06 5.98819e-05 0.251492 55.845 -1.42828e-08 
280 1 0.0357095 0.0357268 0.251471 55.845 -3.73331e-07 
282 1 0.0714377 0.0714214 0.25151 55.845 -1.20562e-07 
284 1 0.107115 0.107156 0.251572 55.845 2.61255e-08 
292 1 0.0714423 4.23248e-05 0.251391 55.845 -1.23063e-07 
294 1 0.107126 0.0357049 0.251536 55.845 -1.92961e-07 
16 1 0.142863 0.107159 0.461098 55.845 2.70785e-08 
21 1 0.142912 0.0357256 0.461072 55.845 -1.60298e-07 
22 1 0.17865 0.071452 0.461073 55.845 5.63237e-08 
23 1 0.214313 0.107135 0.461106 55.845 -4.12401e-07 
27 1 0.178563 -2.38681e-05 0.461009 55.845 -4.46763e-07 
28 1 0.214312 0.035718 0.46119 55.845 -2.99945e-07 
29 1 0.250012 0.0714374 0.461102 55.845 -4.12438e-07 
81 1 0.142897 0.107124 0.377233 55.845 2.08199e-07 
91 1 0.142928 0.0356665 0.377319 55.845 -9.88792e-08 
92 1 0.142896 0.0714768 0.419133 55.845 3.9421e-07 
93 1 0.178602 0.0714354 0.377244 55.845 -1.19367e-07 
94 1 0.178577 0.107147 0.419166 55.845 4.24559e-07 
95 1 0.214294 0.107208 0.377286 55.845 -2.62224e-08 
102 1 0.142866 1.05508e-05 0.419119 55.845 3.56777e-07 
103 1 0.178675 -2.23241e-05 0.377325 55.845 -2.84032e-07 
104 1 0.178647 0.0357506 0.41916 55.845 2.33512e-07 
105 1 0.214338 0.0356849 0.377352 55.845 -2.89715e-07 
106 1 0.214272 0.0714897 0.419069 55.845 3.74483e-07 
107 1 0.250001 0.0714973 0.3773 55.845 -1.52545e-08 
108 1 0.250041 0.107194 0.419291 55.845 1.49595e-07 
118 1 0.214302 -3.26204e-05 0.419213 55.845 3.583e-07 
120 1 0.250054 0.0356855 0.419169 55.845 3.35302e-07 
183 1 0.142849 0.107118 0.293745 55.845 1.62875e-07 
193 1 0.142892 0.0357304 0.293737 55.845 -6.64133e-08 
194 1 0.142935 0.0714218 0.335685 55.845 -1.31117e-07 
195 1 0.178601 0.0714157 0.293724 55.845 1.39972e-07 
196 1 0.178596 0.107156 0.335675 55.845 -6.33443e-08 
197 1 0.214252 0.107126 0.293794 55.845 -9.46468e-08 
204 1 0.142888 -7.93681e-05 0.335625 55.845 -6.73883e-08 
205 1 0.178582 2.38207e-05 0.293858 55.845 -2.67598e-07 
206 1 0.178626 0.0356539 0.335677 55.845 2.03575e-07 
207 1 0.214359 0.0356994 0.293807 55.845 -4.15793e-08 
208 1 0.214319 0.071422 0.335745 55.845 1.5926e-07 
209 1 0.250043 0.0714121 0.293869 55.845 -2.65135e-07 
210 1 0.249992 0.107205 0.335741 55.845 3.7529e-08 
220 1 0.214328 -2.47921e-05 0.335736 55.845 2.20021e-08 
222 1 0.250029 0.035765 0.335729 55.845 -1.97839e-07 
296 1 0.142827 0.0714345 0.251556 55.845 -4.89101e-09 
298 1 0.178538 0.107137 0.251612 55.845 -9.65536e-08 
306 1 0.142894 0.000112101 0.251465 55.845 2.963e-07 
308 1 0.178605 0.0357441 0.251491 55.845 1.67218e-07 
310 1 0.214332 0.0714667 0.25149 55.845 1.86739e-07 
312 1 0.25002 0.10715 0.251604 55.845 2.26898e-07 
322 1 0.214281 3.31717e-05 0.251416 55.845 -2.35098e-08 
324 1 0.250046 0.0357096 0.251444 55.845 6.04165e-08 
30 1 0.285728 0.107131 0.461151 55.845 5.20289e-09 
35 1 0.250005 -1.52667e-05 0.46104 55.845 -3.37993e-07 
36 1 0.285735 0.0356886 0.46104 55.845 -2.13255e-07 
37 1 0.321424 0.071438 0.461097 55.845 -1.18025e-07 
38 1 0.357126 0.10716 0.461199 55.845 -2.37791e-07 
42 1 0.321444 -3.08195e-05 0.46102 55.845 -2.55229e-07 
43 1 0.357107 0.0357232 0.461077 55.845 -1.85511e-07 
109 1 0.285701 0.10715 0.377201 55.845 -1.39715e-07 
119 1 0.250021 2.77187e-05 0.3773 55.845 -4.68096e-07 
121 1 0.285762 0.0356605 0.377317 55.845 -2.29429e-07 
122 1 0.285709 0.0714817 0.419178 55.845 5.18792e-07 
123 1 0.321432 0.0714254 0.37729 55.845 -9.02513e-08 
124 1 0.321418 0.107101 0.419113 55.845 5.92617e-07 
125 1 0.35721 0.107118 0.37738 55.845 -9.61702e-08 
133 1 0.321481 5.08451e-05 0.377222 55.845 -2.03739e-07 
134 1 0.321425 0.0357287 0.419094 55.845 6.39373e-07 
135 1 0.357197 0.0357407 0.377331 55.845 -3.81831e-07 
136 1 0.35714 0.0714405 0.419144 55.845 3.61967e-07 
211 1 0.285767 0.107106 0.29375 55.845 7.50035e-08 
221 1 0.249987 3.54581e-05 0.29381 55.845 -1.57402e-08 
223 1 0.285705 0.0357496 0.293813 55.845 -1.76609e-08 
224 1 0.285702 0.071431 0.335735 55.845 -3.31772e-08 
225 1 0.32141 0.0714506 0.293811 55.845 1.0088e-09 
226 1 0.321395 0.107168 0.335756 55.845 -6.09277e-08 
227 1 0.357131 0.107116 0.293766 55.845 -2.52097e-08 
235 1 0.321437 3.45434e-06 0.293722 55.845 -2.52827e-07 
236 1 0.321447 0.035675 0.3357 55.845 -2.18166e-07 
237 1 0.357172 0.0356873 0.29369 55.845 2.96726e-08 
238 1 0.357123 0.0713877 0.335654 55.845 -1.06741e-07 
326 1 0.285749 0.0714379 0.251485 55.845 2.30178e-08 
328 1 0.321453 0.107114 0.251526 55.845 1.54724e-07 
338 1 0.321435 0.0357405 0.25156 55.845 -2.55811e-07 
340 1 0.357138 0.0714109 0.251517 55.845 -2.39173e-07 
44 1 0.392836 0.0713854 0.461151 55.845 -1.26366e-07 
45 1 0.428599 0.10716 0.461125 55.845 -2.2975e-08 
47 1 0.392943 -1.40324e-05 0.461075 55.845 -2.28892e-07 
48 1 0.42853 0.0357154 0.461222 55.845 -1.06192e-07 
49 1 0.464307 0.0713551 0.461115 55.845 -8.93984e-08 
50 1 0.464273 -4.01138e-05 0.461109 55.845 -2.17584e-07 
137 1 0.392873 0.0714077 0.377394 55.845 -2.22779e-07 
138 1 0.392894 0.107166 0.419208 55.845 3.65321e-07 
139 1 0.428592 0.107118 0.377314 55.845 -2.03184e-07 
144 1 0.392856 2.50139e-05 0.377426 55.845 -3.99991e-07 
145 1 0.392856 0.0356974 0.419221 55.845 2.67529e-07 
146 1 0.428575 0.0357416 0.377377 55.845 -3.21786e-07 
147 1 0.428569 0.0714118 0.419314 55.845 4.39867e-07 
148 1 0.464251 0.0713891 0.377339 55.845 -2.42253e-07 
149 1 0.464298 0.107096 0.419179 55.845 5.11417e-07 
150 1 0.428591 4.05725e-05 0.419125 55.845 4.88012e-07 
151 1 0.464271 -4.81541e-05 0.377173 55.845 -1.75031e-07 
152 1 0.464293 0.0356891 0.41923 55.845 3.36853e-07 
239 1 0.392825 0.0713294 0.293912 55.845 -2.31462e-07 
240 1 0.39289 0.107089 0.335754 55.845 1.54383e-07 
241 1 0.428545 0.107127 0.293721 55.845 -1.34709e-07 
246 1 0.392807 -5.12431e-05 0.29379 55.845 -2.2222e-07 
247 1 0.392879 0.0356358 0.335827 55.845 -7.04054e-08 
248 1 0.428575 0.0357084 0.293803 55.845 8.71687e-09 
249 1 0.428574 0.071408 0.335819 55.845 -1.19159e-07 
250 1 0.464232 0.0714566 0.293827 55.845 1.74429e-08 
251 1 0.464347 0.107134 0.33565 55.845 7.58031e-08 
252 1 0.428524 5.29335e-06 0.335593 55.845 -8.0975e-08 
253 1 0.46421 2.03824e-05 0.293705 55.845 8.51412e-08 
254 1 0.46428 0.0356658 0.335705 55.845 -4.6138e-08 
342 1 0.392822 0.107061 0.251488 55.845 -1.2713e-07 
349 1 0.392869 0.0357236 0.251555 55.845 -1.52222e-07 
351 1 0.428609 0.071429 0.251426 55.845 -6.38189e-08 
353 1 0.464266 0.107139 0.251378 55.845 1.57603e-07 
354 1 0.428454 -1.62306e-05 0.251415 55.845 1.28241e-09 
356 1 0.464306 0.0357771 0.251511 55.845 1.26364e-07 
1 1 -1.44423e-05 0.178533 0.461021 55.845 -1.87904e-07 
2 1 0.0357032 0.214222 0.461083 55.845 -4.22882e-07 
4 1 0.035771 0.142859 0.461034 55.845 4.26604e-08 
5 1 0.0714184 0.178592 0.461113 55.845 -3.72706e-07 
6 1 0.107164 0.214268 0.461123 55.845 -2.02137e-07 
10 1 0.107109 0.142838 0.460984 55.845 -4.06029e-07 
51 1 -7.13626e-05 0.178545 0.37722 55.845 -3.23997e-07 
52 1 -9.99719e-06 0.214302 0.41913 55.845 4.78846e-07 
53 1 0.0357149 0.214247 0.377227 55.845 -5.4275e-08 
54 1 0.0356422 0.249939 0.419203 55.845 3.01478e-07 
56 1 5.52828e-06 0.142881 0.419173 55.845 4.45618e-07 
57 1 0.0357156 0.142843 0.377177 55.845 -2.7378e-07 
58 1 0.0356685 0.178512 0.419107 55.845 3.67394e-07 
59 1 0.0714122 0.178532 0.377297 55.845 1.77812e-08 
60 1 0.0714255 0.214265 0.41925 55.845 2.60919e-07 
61 1 0.107146 0.214255 0.37726 55.845 1.62003e-07 
62 1 0.10717 0.250007 0.419306 55.845 4.28428e-07 
68 1 0.0713531 0.142798 0.419122 55.845 3.16804e-07 
69 1 0.107177 0.142859 0.377273 55.845 -1.30486e-07 
70 1 0.107092 0.178575 0.419264 55.845 2.60153e-07 
153 1 -4.02616e-05 0.178496 0.293794 55.845 1.14014e-07 
154 1 -1.51665e-05 0.214305 0.335603 55.845 1.19631e-07 
155 1 0.0357416 0.214311 0.293705 55.845 -1.05432e-09 
156 1 0.0357409 0.249967 0.335572 55.845 -1.22972e-08 
158 1 -8.70896e-05 0.142804 0.335751 55.845 1.04421e-07 
159 1 0.0356527 0.142859 0.293872 55.845 3.73367e-08 
160 1 0.0357554 0.178557 0.335717 55.845 -2.01799e-07 
161 1 0.0713943 0.178582 0.293666 55.845 -8.43775e-08 
162 1 0.0714424 0.214292 0.335678 55.845 -3.46778e-07 
163 1 0.107201 0.214288 0.293659 55.845 5.18016e-09 
164 1 0.107152 0.24999 0.335786 55.845 -1.44978e-07 
170 1 0.0714911 0.142818 0.335595 55.845 -2.43878e-07 
171 1 0.10714 0.142893 0.293747 55.845 -3.59972e-07 
172 1 0.107105 0.178503 0.335691 55.845 -2.30331e-07 
256 1 -2.07685e-05 0.214282 0.251492 55.845 1.91962e-07 
258 1 0.0357165 0.24994 0.251364 55.845 3.04657e-08 
260 1 2.46768e-05 0.142838 0.251558 55.845 3.55348e-07 
262 1 0.0356807 0.178549 0.251502 55.845 -4.10874e-08 
264 1 0.0714322 0.214309 0.251453 55.845 1.64209e-07 
266 1 0.107165 0.249964 0.251512 55.845 3.892e-07 
272 1 0.0714197 0.142851 0.251496 55.845 -6.50336e-08 
274 1 0.107132 0.178564 0.251386 55.845 -1.72859e-07 
11 1 0.142816 0.178625 0.461198 55.845 -7.65942e-08 
12 1 0.178542 0.214308 0.461142 55.845 -1.09817e-07 
17 1 0.178543 0.142908 0.461016 55.845 1.45622e-08 
18 1 0.214177 0.178605 0.461143 55.845 -2.78006e-07 
19 1 0.249974 0.214231 0.461091 55.845 -2.75854e-07 
24 1 0.249981 0.142887 0.461129 55.845 -1.61044e-07 
71 1 0.14286 0.178586 0.377362 55.845 -2.38034e-07 
72 1 0.142846 0.214254 0.419145 55.845 5.93737e-07 
73 1 0.178587 0.214264 0.377318 55.845 -1.79442e-08 
82 1 0.142889 0.142906 0.41922 55.845 1.58422e-07 
83 1 0.178569 0.142855 0.377249 55.845 -8.80511e-08 
84 1 0.178512 0.178584 0.419135 55.845 2.95615e-07 
85 1 0.214277 0.178537 0.377318 55.845 -1.74691e-07 
86 1 0.214294 0.214276 0.41921 55.845 7.72442e-07 
87 1 0.249987 0.214255 0.37742 55.845 -4.476e-07 
96 1 0.214259 0.142822 0.419188 55.845 2.10562e-07 
97 1 0.250021 0.142899 0.37728 55.845 -1.31352e-07 
98 1 0.250001 0.178487 0.419179 55.845 2.11628e-07 
173 1 0.142899 0.178556 0.29377 55.845 -2.38777e-07 
174 1 0.142848 0.214264 0.335615 55.845 1.10984e-07 
175 1 0.178536 0.214272 0.293775 55.845 -2.43356e-07 
184 1 0.142787 0.142828 0.335661 55.845 -6.18525e-08 
185 1 0.17858 0.14288 0.293882 55.845 -6.33741e-08 
186 1 0.178543 0.178579 0.335707 55.845 -1.53272e-08 
187 1 0.214309 0.178619 0.293793 55.845 -1.64571e-07 
188 1 0.214289 0.214267 0.335659 55.845 -1.29912e-07 
189 1 0.250013 0.214313 0.293807 55.845 -1.26187e-07 
198 1 0.214315 0.142888 0.3357 55.845 5.49254e-09 
199 1 0.249971 0.142833 0.293766 55.845 2.27878e-07 
200 1 0.250027 0.178569 0.335659 55.845 -5.25258e-07 
276 1 0.142828 0.214291 0.251473 55.845 -7.27434e-08 
286 1 0.142907 0.142877 0.251523 55.845 -1.59024e-07 
288 1 0.178594 0.178586 0.251604 55.845 2.77895e-07 
290 1 0.214292 0.214297 0.25158 55.845 -2.67982e-08 
300 1 0.214283 0.142851 0.251587 55.845 1.16616e-08 
302 1 0.249994 0.178503 0.251519 55.845 1.34947e-07 
25 1 0.285728 0.178478 0.461159 55.845 -4.31947e-07 
26 1 0.321421 0.214247 0.461103 55.845 -3.29702e-07 
31 1 0.321398 0.142812 0.46109 55.845 -1.29083e-07 
32 1 0.357178 0.178554 0.461138 55.845 -6.78759e-08 
99 1 0.285726 0.178585 0.377231 55.845 -7.08798e-08 
100 1 0.285721 0.214263 0.419236 55.845 3.27711e-07 
101 1 0.321453 0.214272 0.377304 55.845 -1.87478e-07 
110 1 0.285753 0.142801 0.419164 55.845 2.59828e-07 
111 1 0.321391 0.142837 0.377309 55.845 -5.01861e-08 
112 1 0.32148 0.1785 0.419267 55.845 3.01297e-07 
113 1 0.35713 0.178584 0.377325 55.845 -1.14936e-07 
114 1 0.357178 0.214307 0.419215 55.845 2.2928e-07 
126 1 0.357203 0.142843 0.419215 55.845 2.00385e-07 
201 1 0.28572 0.17856 0.293736 55.845 2.72371e-07 
202 1 0.285749 0.21424 0.335677 55.845 -1.79802e-08 
203 1 0.321411 0.214284 0.293931 55.845 4.19323e-08 
212 1 0.285737 0.142825 0.33567 55.845 -3.13296e-07 
213 1 0.321499 0.142816 0.293629 55.845 2.39265e-08 
214 1 0.32138 0.178523 0.335668 55.845 -1.04495e-07 