ITEM: TIMESTEP
6000
ITEM: NUMBER OF ATOMS
5880
ITEM: BOX BOUNDS pp pp ff
-27.8944 27.8944
-27.8944 27.8944
0 34.092
ITEM: ATOMS id type xs ys zs mass q 
259 1 -2.9957e-05 0.107133 0.209528 55.845 -4.37337e-07 
267 1 -4.81345e-05 0.0356534 0.209637 55.845 -4.96734e-07 
269 1 0.0357476 0.0714219 0.209474 55.845 -4.66479e-07 
271 1 0.0715503 0.107111 0.209506 55.845 -4.45176e-07 
279 1 0.0357836 -2.86863e-05 0.209531 55.845 -4.95914e-07 
281 1 0.0715286 0.0356734 0.209496 55.845 -4.63067e-07 
283 1 0.10725 0.0714474 0.209499 55.845 -4.93359e-07 
293 1 0.107133 6.24522e-05 0.209523 55.845 -4.54778e-07 
361 1 2.63932e-05 0.107045 0.126128 55.845 4.38424e-07 
369 1 6.11628e-06 0.0356417 0.126133 55.845 4.22798e-07 
370 1 -3.43543e-05 0.0712445 0.168219 55.845 -4.29133e-07 
371 1 0.0356788 0.0714111 0.126156 55.845 4.46071e-07 
372 1 0.035739 0.107128 0.167978 55.845 -4.52617e-07 
373 1 0.071455 0.10715 0.126037 55.845 4.98123e-07 
380 1 7.43816e-05 -1.56409e-05 0.168109 55.845 -4.01353e-07 
381 1 0.0357234 -9.39598e-06 0.126046 55.845 4.56052e-07 
382 1 0.0357331 0.0356349 0.16815 55.845 -4.23131e-07 
383 1 0.0713941 0.0356181 0.126082 55.845 4.46902e-07 
384 1 0.0714372 0.0714223 0.167917 55.845 -4.46209e-07 
385 1 0.107068 0.071412 0.126023 55.845 4.95103e-07 
386 1 0.107187 0.107157 0.167977 55.845 -4.49839e-07 
394 1 0.0715278 2.78252e-05 0.167884 55.845 -4.62751e-07 
395 1 0.107309 -1.97487e-05 0.12605 55.845 4.12241e-07 
396 1 0.107182 0.0357461 0.167837 55.845 -4.64312e-07 
463 1 0 0.107143 0.0416667 55.845 8.28916e-08 
471 1 0 0.0357143 0.0416667 55.845 6.96525e-08 
472 1 1.73692e-05 0.0713438 0.0838456 55.845 1.7246e-07 
473 1 0.0357143 0.0714286 0.0416667 55.845 8.54611e-08 
474 1 0.0357418 0.107064 0.083996 55.845 1.8087e-07 
475 1 0.0714286 0.107143 0.0416667 55.845 1.60211e-07 
482 1 7.20172e-06 -3.4838e-05 0.0840332 55.845 2.48214e-07 
483 1 0.0357143 0 0.0416667 55.845 1.07671e-07 
484 1 0.0356624 0.0357014 0.0839307 55.845 1.70139e-07 
485 1 0.0714286 0.0357143 0.0416667 55.845 1.06955e-07 
486 1 0.0714165 0.0713276 0.0839808 55.845 2.10815e-07 
487 1 0.107143 0.0714286 0.0416667 55.845 1.5195e-07 
488 1 0.107182 0.107156 0.0838749 55.845 1.95754e-07 
496 1 0.0714526 -2.34367e-05 0.0839358 55.845 1.84742e-07 
497 1 0.107143 0 0.0416667 55.845 7.82981e-08 
498 1 0.107198 0.0357169 0.0839121 55.845 2.03342e-07 
567 1 0 0.0714286 0 55.845 -3.55654e-07 
568 1 0.0357143 0.107143 0 55.845 -3.00786e-07 
572 1 0 0 0 55.845 -2.74388e-07 
573 1 0.0357143 0.0357143 0 55.845 -3.12573e-07 
574 1 0.0714286 0.0714286 0 55.845 -2.78343e-07 
575 1 0.107143 0.107143 0 55.845 -2.8703e-07 
579 1 0.0714286 0 0 55.845 -3.18652e-07 
580 1 0.107143 0.0357143 0 55.845 -2.81762e-07 
285 1 0.142885 0.107213 0.209471 55.845 -4.8565e-07 
295 1 0.142866 0.0357252 0.209502 55.845 -4.95253e-07 
297 1 0.178574 0.0714477 0.209628 55.845 -4.70706e-07 
299 1 0.214262 0.107138 0.209486 55.845 -4.81305e-07 
307 1 0.178575 2.86428e-05 0.209516 55.845 -5.12725e-07 
309 1 0.214243 0.0356496 0.209566 55.845 -4.95412e-07 
311 1 0.249932 0.0714816 0.2095 55.845 -4.96989e-07 
387 1 0.142899 0.107211 0.126084 55.845 5.04711e-07 
397 1 0.142869 0.0356639 0.126187 55.845 4.38201e-07 
398 1 0.142848 0.071369 0.16806 55.845 -4.41162e-07 
399 1 0.178562 0.071437 0.126007 55.845 4.48605e-07 
400 1 0.178581 0.107158 0.168016 55.845 -4.61376e-07 
401 1 0.214272 0.107146 0.12606 55.845 4.54335e-07 
408 1 0.14289 -7.12026e-05 0.168184 55.845 -4.30855e-07 
409 1 0.178621 -3.75293e-05 0.126078 55.845 4.53069e-07 
410 1 0.17854 0.0357701 0.168169 55.845 -4.30129e-07 
411 1 0.21433 0.0356192 0.126191 55.845 4.25671e-07 
412 1 0.21431 0.0713242 0.168028 55.845 -4.6149e-07 
413 1 0.250031 0.071449 0.126016 55.845 4.14556e-07 
414 1 0.249932 0.107072 0.168076 55.845 -4.81452e-07 
424 1 0.214354 -3.13811e-05 0.167982 55.845 -4.7067e-07 
426 1 0.250041 0.0357077 0.167794 55.845 -4.8767e-07 
489 1 0.142857 0.107143 0.0416667 55.845 1.17536e-07 
499 1 0.142857 0.0357143 0.0416667 55.845 1.16165e-07 
500 1 0.142819 0.0713951 0.0840708 55.845 2.11116e-07 
501 1 0.178571 0.0714286 0.0416667 55.845 9.73939e-08 
502 1 0.17852 0.107071 0.0838302 55.845 1.37067e-07 
503 1 0.214286 0.107143 0.0416667 55.845 9.70257e-08 
510 1 0.142899 -5.45209e-05 0.0839026 55.845 1.90325e-07 
511 1 0.178571 0 0.0416667 55.845 9.79945e-08 
512 1 0.178644 0.0356774 0.0839749 55.845 1.92165e-07 
513 1 0.214286 0.0357143 0.0416667 55.845 9.3396e-08 
514 1 0.214227 0.071431 0.0838328 55.845 1.59087e-07 
515 1 0.25 0.0714286 0.0416667 55.845 8.19913e-08 
516 1 0.249976 0.107124 0.0839327 55.845 1.62974e-07 
526 1 0.214417 -2.36256e-05 0.0839902 55.845 1.93129e-07 
528 1 0.249946 0.0357222 0.0840248 55.845 1.60858e-07 
581 1 0.142857 0.0714286 0 55.845 -2.70854e-07 
582 1 0.178571 0.107143 0 55.845 -3.19486e-07 
586 1 0.142857 0 0 55.845 -3.22516e-07 
587 1 0.178571 0.0357143 0 55.845 -2.83281e-07 
588 1 0.214286 0.0714286 0 55.845 -3.21966e-07 
589 1 0.25 0.107143 0 55.845 -3.1197e-07 
594 1 0.214286 0 0 55.845 -2.84509e-07 
595 1 0.25 0.0357143 0 55.845 -3.23936e-07 
313 1 0.285607 0.107101 0.209366 55.845 -4.48565e-07 
323 1 0.250106 -1.45482e-05 0.209533 55.845 -5.18306e-07 
325 1 0.285756 0.0356742 0.20955 55.845 -4.51826e-07 
327 1 0.321335 0.0714465 0.209481 55.845 -4.44567e-07 
329 1 0.357149 0.107049 0.209423 55.845 -4.35224e-07 
337 1 0.32139 8.75356e-05 0.209608 55.845 -4.57375e-07 
339 1 0.357091 0.035647 0.209444 55.845 -4.54036e-07 
415 1 0.285679 0.10709 0.126148 55.845 4.78114e-07 
425 1 0.250133 -2.26509e-06 0.126102 55.845 4.39732e-07 
427 1 0.285781 0.035749 0.126072 55.845 4.38375e-07 
428 1 0.285723 0.0713994 0.167997 55.845 -5.09676e-07 
429 1 0.321434 0.0714426 0.125987 55.845 4.80761e-07 
430 1 0.321508 0.107089 0.168019 55.845 -5.25664e-07 
431 1 0.35715 0.107212 0.126065 55.845 4.93704e-07 
439 1 0.321431 -3.00819e-05 0.126033 55.845 4.59742e-07 
440 1 0.321428 0.0357825 0.168067 55.845 -5.17782e-07 
441 1 0.357157 0.0357686 0.126075 55.845 4.97086e-07 
442 1 0.357134 0.0713625 0.167975 55.845 -5.44437e-07 
517 1 0.285714 0.107143 0.0416667 55.845 1.18706e-07 
527 1 0.25 0 0.0416667 55.845 1.11024e-07 
529 1 0.285714 0.0357143 0.0416667 55.845 9.20278e-08 
530 1 0.285656 0.0714344 0.0838531 55.845 1.36292e-07 
531 1 0.321429 0.0714286 0.0416667 55.845 1.24049e-07 
532 1 0.321439 0.107108 0.0837687 55.845 1.47897e-07 
533 1 0.357143 0.107143 0.0416667 55.845 1.18209e-07 
603 1 0.357143 0.0714286 0 55.845 -3.05787e-07 
541 1 0.321429 0 0.0416667 55.845 1.04421e-07 
542 1 0.32146 0.0356597 0.0838618 55.845 1.46835e-07 
543 1 0.357143 0.0357143 0.0416667 55.845 1.25467e-07 
544 1 0.357149 0.0714494 0.0839674 55.845 1.47567e-07 
602 1 0.321429 0.0357143 0 55.845 -3.18518e-07 
596 1 0.285714 0.0714286 0 55.845 -3.36439e-07 
597 1 0.321429 0.107143 0 55.845 -3.21052e-07 
612 1 0.464286 0.0357143 0 55.845 -3.28105e-07 
611 1 0.428571 0 0 55.845 -3.38554e-07 
610 1 0.464286 0.107143 0 55.845 -3.03256e-07 
609 1 0.428571 0.0714286 0 55.845 -2.89385e-07 
608 1 0.392857 0.0357143 0 55.845 -2.94379e-07 
341 1 0.392806 0.071432 0.209359 55.845 -4.68986e-07 
343 1 0.428491 0.107109 0.209363 55.845 -4.73031e-07 
348 1 0.392866 7.97329e-06 0.209512 55.845 -4.4446e-07 
350 1 0.428541 0.035668 0.209591 55.845 -4.71005e-07 
352 1 0.464318 0.0715947 0.20951 55.845 -4.68143e-07 
355 1 0.464279 3.07866e-05 0.209508 55.845 -4.71542e-07 
443 1 0.392797 0.071461 0.126058 55.845 5.1589e-07 
444 1 0.392853 0.107205 0.167982 55.845 -5.10324e-07 
445 1 0.428551 0.107103 0.126049 55.845 5.00767e-07 
604 1 0.392857 0.107143 0 55.845 -3.19911e-07 
450 1 0.392886 -2.32361e-05 0.126068 55.845 4.67594e-07 
451 1 0.392926 0.0356869 0.16805 55.845 -5.09346e-07 
452 1 0.428587 0.0357311 0.12611 55.845 4.6589e-07 
453 1 0.428555 0.0713888 0.167958 55.845 -4.90705e-07 
454 1 0.464255 0.0714655 0.125997 55.845 4.54427e-07 
455 1 0.464266 0.107148 0.167846 55.845 -4.62274e-07 
456 1 0.428617 -3.90797e-05 0.168056 55.845 -4.77199e-07 
457 1 0.464296 -2.07501e-05 0.126151 55.845 4.69894e-07 
458 1 0.46422 0.0357957 0.167997 55.845 -4.59663e-07 
545 1 0.392857 0.0714286 0.0416667 55.845 1.51925e-07 
546 1 0.39288 0.107086 0.0838072 55.845 1.4584e-07 
547 1 0.428571 0.107143 0.0416667 55.845 1.48569e-07 
552 1 0.392857 0 0.0416667 55.845 9.45466e-08 
553 1 0.392865 0.0356558 0.0839313 55.845 1.63359e-07 
554 1 0.428571 0.0357143 0.0416667 55.845 1.29963e-07 
555 1 0.428535 0.0712668 0.0837842 55.845 1.77296e-07 
556 1 0.464286 0.0714286 0.0416667 55.845 1.0911e-07 
557 1 0.464299 0.107123 0.083793 55.845 1.79686e-07 
558 1 0.428575 -7.32594e-05 0.0838529 55.845 1.52366e-07 
559 1 0.464286 0 0.0416667 55.845 1.25703e-07 
560 1 0.46426 0.0355936 0.0839086 55.845 1.61911e-07 
255 1 0.000115054 0.178575 0.209418 55.845 -4.44856e-07 
257 1 0.0357192 0.214255 0.209416 55.845 -4.35984e-07 
261 1 0.0358286 0.142831 0.209479 55.845 -4.56691e-07 
263 1 0.0715449 0.178515 0.209411 55.845 -3.94065e-07 
265 1 0.10714 0.214298 0.209531 55.845 -4.57576e-07 
273 1 0.107165 0.142876 0.209391 55.845 -4.47116e-07 
357 1 3.94953e-05 0.178508 0.126023 55.845 5.09008e-07 
358 1 -1.03287e-05 0.214334 0.168075 55.845 -4.73039e-07 
359 1 0.0356868 0.214301 0.126138 55.845 4.9168e-07 
360 1 0.0356959 0.250002 0.168164 55.845 -4.98471e-07 
362 1 1.81789e-05 0.142761 0.167951 55.845 -4.40318e-07 
363 1 0.0357826 0.142716 0.125966 55.845 4.8099e-07 
364 1 0.0357589 0.178481 0.167974 55.845 -4.88687e-07 
365 1 0.071324 0.178569 0.126057 55.845 4.96609e-07 
366 1 0.0715128 0.214196 0.168074 55.845 -4.86807e-07 
367 1 0.107082 0.214324 0.126038 55.845 4.72017e-07 
368 1 0.107115 0.249975 0.167961 55.845 -4.75037e-07 
374 1 0.0714625 0.142769 0.168096 55.845 -4.73129e-07 
375 1 0.107122 0.14297 0.125961 55.845 4.92525e-07 
376 1 0.107241 0.178568 0.167868 55.845 -4.98992e-07 
459 1 0 0.178571 0.0416667 55.845 1.58922e-07 
460 1 -2.60929e-05 0.214332 0.083873 55.845 2.08341e-07 
461 1 0.0357143 0.214286 0.0416667 55.845 1.16174e-07 
462 1 0.0356814 0.249931 0.0838579 55.845 1.45317e-07 
464 1 1.60559e-05 0.14287 0.0839852 55.845 2.37818e-07 
465 1 0.0357143 0.142857 0.0416667 55.845 1.56532e-07 
466 1 0.0357168 0.178588 0.083881 55.845 1.86861e-07 
467 1 0.0714286 0.178571 0.0416667 55.845 1.07262e-07 
468 1 0.0713778 0.214282 0.0839016 55.845 1.62052e-07 
469 1 0.107143 0.214286 0.0416667 55.845 1.08204e-07 
470 1 0.107113 0.249942 0.083914 55.845 1.87435e-07 
476 1 0.0714584 0.142938 0.0837724 55.845 1.8512e-07 
477 1 0.107143 0.142857 0.0416667 55.845 1.08773e-07 
478 1 0.107016 0.178638 0.0838615 55.845 1.27984e-07 
561 1 0 0.214286 0 55.845 -2.88042e-07 
562 1 0.0357143 0.25 0 55.845 -3.4584e-07 
563 1 0 0.142857 0 55.845 -2.74001e-07 
564 1 0.0357143 0.178571 0 55.845 -2.75354e-07 
565 1 0.0714286 0.214286 0 55.845 -3.27576e-07 
566 1 0.107143 0.25 0 55.845 -2.86563e-07 
569 1 0.0714286 0.142857 0 55.845 -3.03296e-07 
570 1 0.107143 0.178571 0 55.845 -3.39832e-07 
275 1 0.142854 0.178523 0.209668 55.845 -4.30753e-07 
277 1 0.178545 0.21431 0.209519 55.845 -4.96053e-07 
287 1 0.178517 0.142864 0.209497 55.845 -4.41693e-07 
289 1 0.214271 0.178609 0.209536 55.845 -4.8751e-07 
291 1 0.250003 0.214274 0.20959 55.845 -4.50828e-07 
301 1 0.249956 0.142785 0.209706 55.845 -4.6135e-07 
377 1 0.142924 0.178582 0.125943 55.845 4.90987e-07 
378 1 0.142835 0.214237 0.168055 55.845 -4.68827e-07 
379 1 0.178576 0.214327 0.12603 55.845 4.95728e-07 
388 1 0.142783 0.142963 0.167991 55.845 -5.12991e-07 
389 1 0.17861 0.142897 0.126057 55.845 4.54144e-07 
390 1 0.178539 0.178544 0.167844 55.845 -4.90563e-07 
391 1 0.214341 0.178614 0.125985 55.845 4.5858e-07 
392 1 0.214246 0.214279 0.168107 55.845 -4.37929e-07 
393 1 0.249891 0.21431 0.126164 55.845 4.14569e-07 
402 1 0.214249 0.142947 0.167993 55.845 -4.62353e-07 
403 1 0.249969 0.142798 0.126051 55.845 4.97835e-07 
404 1 0.24992 0.178501 0.168064 55.845 -4.85789e-07 
479 1 0.142857 0.178571 0.0416667 55.845 9.77405e-08 
480 1 0.142889 0.214318 0.0839667 55.845 1.75809e-07 
481 1 0.178571 0.214286 0.0416667 55.845 1.42022e-07 
490 1 0.142962 0.142906 0.0838199 55.845 1.1359e-07 
491 1 0.178571 0.142857 0.0416667 55.845 1.00828e-07 
492 1 0.178657 0.178596 0.0839447 55.845 1.69183e-07 
493 1 0.214286 0.178571 0.0416667 55.845 1.25749e-07 
494 1 0.21426 0.2143 0.0838955 55.845 1.84257e-07 
495 1 0.25 0.214286 0.0416667 55.845 8.58049e-08 
504 1 0.214296 0.142868 0.0839511 55.845 1.84535e-07 
505 1 0.25 0.142857 0.0416667 55.845 1.50309e-07 
506 1 0.249956 0.178593 0.0839826 55.845 2.09365e-07 
571 1 0.142857 0.214286 0 55.845 -2.97606e-07 
576 1 0.142857 0.142857 0 55.845 -3.44945e-07 
577 1 0.178571 0.178571 0 55.845 -3.18527e-07 
578 1 0.214286 0.214286 0 55.845 -3.1259e-07 
583 1 0.214286 0.142857 0 55.845 -3.00524e-07 
584 1 0.25 0.178571 0 55.845 -2.82784e-07 
303 1 0.285727 0.178434 0.209672 55.845 -5.06252e-07 
305 1 0.321519 0.214267 0.209661 55.845 -4.62056e-07 
315 1 0.321395 0.142816 0.209649 55.845 -4.56095e-07 
317 1 0.357174 0.178568 0.209664 55.845 -4.32034e-07 
405 1 0.285626 0.178531 0.12634 55.845 4.83752e-07 
406 1 0.285686 0.214228 0.168133 55.845 -4.77816e-07 
407 1 0.321427 0.214223 0.126031 55.845 4.49298e-07 
416 1 0.285596 0.14287 0.168099 55.845 -4.93785e-07 
417 1 0.321417 0.142846 0.126257 55.845 4.68907e-07 
418 1 0.321395 0.178464 0.168107 55.845 -4.88417e-07 
419 1 0.35722 0.178563 0.126101 55.845 4.47833e-07 
420 1 0.357089 0.214222 0.168113 55.845 -4.69409e-07 
432 1 0.357143 0.142838 0.168062 55.845 -5.13405e-07 
507 1 0.285714 0.178571 0.0416667 55.845 1.45511e-07 
508 1 0.285606 0.214305 0.0839686 55.845 1.65858e-07 
509 1 0.321429 0.214286 0.0416667 55.845 1.12038e-07 
518 1 0.28577 0.142842 0.0839378 55.845 1.91957e-07 
519 1 0.321429 0.142857 0.0416667 55.845 1.24642e-07 
520 1 0.321475 0.17854 0.0839429 55.845 1.46612e-07 
521 1 0.357143 0.178571 0.0416667 55.845 9.25143e-08 
522 1 0.357179 0.214291 0.0839264 55.845 1.96706e-07 
534 1 0.357173 0.142909 0.0839522 55.845 1.30532e-07 
585 1 0.285714 0.214286 0 55.845 -3.1987e-07 
590 1 0.285714 0.142857 0 55.845 -2.79051e-07 
591 1 0.321429 0.178571 0 55.845 -3.0562e-07 
592 1 0.357143 0.214286 0 55.845 -2.84719e-07 
598 1 0.357143 0.142857 0 55.845 -3.38361e-07 
319 1 0.39288 0.214361 0.209715 55.845 -4.74254e-07 
321 1 0.428603 0.249958 0.209643 55.845 -5.44196e-07 
331 1 0.392864 0.142862 0.209599 55.845 -4.42359e-07 
333 1 0.428589 0.178611 0.209586 55.845 -4.83568e-07 
335 1 0.464255 0.214338 0.209557 55.845 -4.77068e-07 
345 1 0.464281 0.142977 0.209488 55.845 -4.80077e-07 
606 1 0.464286 0.178571 0 55.845 -2.89819e-07 
421 1 0.392843 0.214279 0.126221 55.845 4.5459e-07 
422 1 0.392856 0.250007 0.168185 55.845 -4.00183e-07 
423 1 0.428582 0.24991 0.125953 55.845 4.57325e-07 
433 1 0.392827 0.142811 0.126191 55.845 4.34516e-07 
434 1 0.392853 0.178577 0.168247 55.845 -4.57804e-07 
435 1 0.428461 0.178588 0.126105 55.845 4.18016e-07 
436 1 0.428533 0.214313 0.168089 55.845 -4.19353e-07 
437 1 0.464418 0.214231 0.126091 55.845 4.40278e-07 
605 1 0.428571 0.142857 0 55.845 -3.33565e-07 
446 1 0.428507 0.14286 0.167936 55.845 -4.70433e-07 
447 1 0.464205 0.14287 0.126095 55.845 4.48047e-07 
448 1 0.464253 0.178576 0.168092 55.845 -4.25623e-07 
523 1 0.392857 0.214286 0.0416667 55.845 1.22945e-07 
524 1 0.392907 0.249953 0.0839001 55.845 2.44886e-07 
525 1 0.428571 0.25 0.0416667 55.845 1.17892e-07 
535 1 0.392857 0.142857 0.0416667 55.845 8.25813e-08 
536 1 0.39287 0.178629 0.0839207 55.845 1.28245e-07 
537 1 0.428571 0.178571 0.0416667 55.845 8.81692e-08 
538 1 0.42861 0.214285 0.0839513 55.845 2.10695e-07 
539 1 0.464286 0.214286 0.0416667 55.845 9.56074e-08 
548 1 0.428606 0.142917 0.0838735 55.845 1.70755e-07 
549 1 0.464286 0.142857 0.0416667 55.845 1.32018e-07 
550 1 0.464295 0.17859 0.0839324 55.845 2.05316e-07 
593 1 0.392857 0.25 0 55.845 -2.62316e-07 
599 1 0.392857 0.178571 0 55.845 -3.36782e-07 
600 1 0.428571 0.214286 0 55.845 -2.97333e-07 
3 1 -3.28095e-06 0.107198 0.462125 55.845 3.94049e-07 
7 1 3.86268e-05 0.0356869 0.462143 55.845 3.53174e-07 
8 1 0.0357933 0.0713969 0.462221 55.845 3.80214e-07 
9 1 0.0714265 0.107163 0.462083 55.845 3.75014e-07 
13 1 0.0358417 -2.97466e-05 0.46196 55.845 3.85502e-07 
14 1 0.0715706 0.0357766 0.462173 55.845 3.8171e-07 
15 1 0.107123 0.0714728 0.462137 55.845 4.0252e-07 
20 1 0.107132 6.62662e-05 0.461947 55.845 3.74063e-07 
55 1 7.38242e-05 0.107184 0.378794 55.845 -4.38523e-07 
63 1 0.000138825 0.0356198 0.378943 55.845 -4.83488e-07 
64 1 2.82743e-06 0.0714964 0.42026 55.845 -4.6974e-07 
65 1 0.0357584 0.0715169 0.378797 55.845 -4.06e-07 
66 1 0.035729 0.107195 0.420249 55.845 -4.86959e-07 
67 1 0.0713475 0.107114 0.378748 55.845 -4.63205e-07 
74 1 0.000114108 -2.2227e-05 0.420141 55.845 -4.50533e-07 
75 1 0.0356704 -1.53963e-05 0.37867 55.845 -4.9406e-07 
76 1 0.0358614 0.035745 0.420147 55.845 -4.63526e-07 
77 1 0.0715083 0.0357038 0.378813 55.845 -4.52347e-07 
78 1 0.0714847 0.0713738 0.420206 55.845 -4.73809e-07 
79 1 0.107148 0.0714358 0.378658 55.845 -5.13434e-07 
80 1 0.107149 0.107162 0.420003 55.845 -4.28793e-07 
88 1 0.0714059 -8.4079e-05 0.420139 55.845 -4.47964e-07 
89 1 0.107107 -3.32745e-05 0.378689 55.845 -4.47889e-07 
90 1 0.107233 0.0357029 0.42003 55.845 -4.68876e-07 
157 1 1.36055e-05 0.107218 0.294213 55.845 5.63068e-07 
165 1 2.7177e-05 0.0357081 0.294296 55.845 5.27338e-07 
166 1 -4.99124e-05 0.0715244 0.337177 55.845 3.32245e-07 
167 1 0.0358047 0.0714628 0.294031 55.845 5.42259e-07 
168 1 0.0357605 0.107147 0.337009 55.845 2.48402e-07 
169 1 0.0714374 0.107078 0.294102 55.845 5.1089e-07 
176 1 3.57969e-05 8.69691e-05 0.33706 55.845 2.57849e-07 
177 1 0.0357051 0.000121505 0.294274 55.845 4.70097e-07 
178 1 0.0357721 0.0357746 0.337135 55.845 2.83039e-07 
179 1 0.071415 0.0357403 0.294229 55.845 4.95617e-07 
180 1 0.0714751 0.0714487 0.337044 55.845 2.7448e-07 
181 1 0.107108 0.071458 0.294202 55.845 4.60145e-07 
182 1 0.107086 0.107154 0.336972 55.845 2.67504e-07 
190 1 0.0714746 2.10261e-05 0.336982 55.845 2.74761e-07 
191 1 0.107231 2.80338e-05 0.294151 55.845 5.15815e-07 
192 1 0.107161 0.0357131 0.336845 55.845 2.98814e-07 
268 1 2.87249e-05 0.0714389 0.251557 55.845 3.64111e-07 
270 1 0.0357736 0.107125 0.251572 55.845 3.15234e-07 
278 1 4.80645e-05 -3.73926e-05 0.251745 55.845 2.97162e-07 
280 1 0.0356956 0.0357747 0.251751 55.845 3.4032e-07 
282 1 0.0714917 0.071381 0.251425 55.845 2.8164e-07 
284 1 0.107166 0.107188 0.251517 55.845 2.80348e-07 
292 1 0.0714766 6.42616e-05 0.251667 55.845 3.19941e-07 
294 1 0.107174 0.0358049 0.251538 55.845 3.07398e-07 
16 1 0.142903 0.107139 0.462018 55.845 3.51397e-07 
21 1 0.142804 0.0357071 0.461993 55.845 3.93884e-07 
22 1 0.178623 0.0713508 0.462046 55.845 3.86986e-07 
23 1 0.214242 0.107179 0.461901 55.845 3.77619e-07 
27 1 0.178619 -1.27099e-05 0.462022 55.845 3.99171e-07 
28 1 0.214306 0.0356666 0.462027 55.845 3.3732e-07 
29 1 0.250001 0.0714329 0.461907 55.845 3.78974e-07 
81 1 0.142786 0.107195 0.37886 55.845 -4.8995e-07 
91 1 0.142894 0.0356699 0.378679 55.845 -5.01037e-07 
92 1 0.142815 0.0714713 0.420091 55.845 -4.4499e-07 
93 1 0.178525 0.071508 0.378627 55.845 -4.88387e-07 
94 1 0.178576 0.107097 0.419923 55.845 -4.48032e-07 
95 1 0.214267 0.107101 0.378682 55.845 -5.11985e-07 
102 1 0.142809 1.39469e-05 0.42011 55.845 -5.20745e-07 
103 1 0.178534 1.96262e-06 0.378795 55.845 -4.64032e-07 
104 1 0.178565 0.0357335 0.420111 55.845 -4.46545e-07 
105 1 0.214293 0.0356962 0.378838 55.845 -4.69289e-07 
106 1 0.214349 0.0713674 0.420118 55.845 -4.79874e-07 
107 1 0.250074 0.0714645 0.378807 55.845 -4.60453e-07 
108 1 0.24997 0.107153 0.420143 55.845 -4.53301e-07 
118 1 0.214269 -0.000127307 0.42018 55.845 -4.70935e-07 
120 1 0.250023 0.0356548 0.420099 55.845 -4.64325e-07 
183 1 0.14279 0.107137 0.294114 55.845 5.10725e-07 
193 1 0.142871 0.0358073 0.294123 55.845 4.95636e-07 
194 1 0.142821 0.0714922 0.337132 55.845 2.67911e-07 
195 1 0.178591 0.0713737 0.294127 55.845 5.11411e-07 
196 1 0.178548 0.107255 0.336927 55.845 2.97945e-07 
197 1 0.214246 0.107218 0.294193 55.845 5.06945e-07 
204 1 0.142897 2.32666e-05 0.336936 55.845 2.93035e-07 
205 1 0.178605 1.7427e-05 0.294226 55.845 4.82627e-07 
206 1 0.1786 0.0357037 0.337085 55.845 2.7036e-07 
207 1 0.214282 0.0356533 0.294229 55.845 4.93489e-07 
208 1 0.214308 0.0713826 0.337157 55.845 2.82965e-07 
209 1 0.249953 0.0714374 0.29411 55.845 5.18495e-07 
210 1 0.249978 0.107156 0.33719 55.845 2.39031e-07 
220 1 0.214325 -3.16604e-05 0.337068 55.845 2.44181e-07 
222 1 0.249997 0.0356842 0.337159 55.845 2.57051e-07 
296 1 0.142858 0.0714115 0.251702 55.845 2.96465e-07 
298 1 0.178539 0.107196 0.251625 55.845 3.02543e-07 
306 1 0.142938 -1.85225e-05 0.2517 55.845 3.0805e-07 
308 1 0.178534 0.0356154 0.251691 55.845 2.95952e-07 
310 1 0.214303 0.0714599 0.251603 55.845 3.10803e-07 
312 1 0.249945 0.107188 0.251692 55.845 2.18916e-07 
322 1 0.214258 -2.90737e-05 0.251568 55.845 2.93096e-07 
324 1 0.250043 0.0358105 0.251527 55.845 2.92378e-07 
30 1 0.285688 0.10716 0.462057 55.845 3.54669e-07 
35 1 0.250029 3.69841e-05 0.462004 55.845 4.04097e-07 
36 1 0.285674 0.0356654 0.462042 55.845 3.53986e-07 
37 1 0.321383 0.0714131 0.462069 55.845 3.52473e-07 
38 1 0.357067 0.107207 0.46204 55.845 3.34745e-07 
42 1 0.321363 1.45081e-05 0.462174 55.845 3.22311e-07 
43 1 0.357117 0.0357626 0.462125 55.845 3.53866e-07 
109 1 0.285688 0.107132 0.378664 55.845 -4.58343e-07 
119 1 0.249945 -6.70557e-05 0.378804 55.845 -4.84129e-07 
121 1 0.285716 0.035653 0.378844 55.845 -4.66772e-07 
122 1 0.285711 0.0714189 0.42007 55.845 -4.94801e-07 
123 1 0.321446 0.071412 0.378801 55.845 -4.87779e-07 
124 1 0.321364 0.107134 0.420224 55.845 -4.9406e-07 
125 1 0.357167 0.107188 0.378849 55.845 -5.01476e-07 
133 1 0.321425 5.31283e-05 0.378828 55.845 -5.08401e-07 
134 1 0.321382 0.0357005 0.42019 55.845 -4.65308e-07 
135 1 0.357128 0.0357202 0.378785 55.845 -4.94141e-07 
136 1 0.357098 0.0714836 0.42021 55.845 -4.89486e-07 
211 1 0.285648 0.107094 0.294207 55.845 5.09788e-07 
221 1 0.250027 8.19964e-05 0.294154 55.845 4.62455e-07 
223 1 0.285702 0.03566 0.294248 55.845 5.4252e-07 
224 1 0.285714 0.0713623 0.33719 55.845 2.34204e-07 
225 1 0.321436 0.0714104 0.294173 55.845 5.33053e-07 
226 1 0.32137 0.107136 0.337172 55.845 2.17598e-07 
227 1 0.357051 0.10718 0.29429 55.845 5.54117e-07 
235 1 0.321452 2.58311e-05 0.294086 55.845 5.16545e-07 
236 1 0.321419 0.0357869 0.337057 55.845 2.35935e-07 
237 1 0.357159 0.035726 0.293952 55.845 4.96178e-07 
238 1 0.357112 0.0714018 0.337225 55.845 2.10123e-07 
326 1 0.285729 0.0714829 0.251787 55.845 2.51511e-07 
328 1 0.321395 0.107201 0.251586 55.845 1.92832e-07 
338 1 0.321375 0.0357264 0.251633 55.845 2.1368e-07 
340 1 0.357099 0.0714909 0.251591 55.845 2.0523e-07 
44 1 0.392723 0.0714233 0.462199 55.845 3.42338e-07 
45 1 0.42857 0.10722 0.462171 55.845 3.86492e-07 
47 1 0.392837 -2.60589e-05 0.462168 55.845 2.74029e-07 
48 1 0.428563 0.0357444 0.462114 55.845 3.36809e-07 
49 1 0.464266 0.0715335 0.462184 55.845 3.15361e-07 
50 1 0.464262 1.86689e-06 0.462147 55.845 2.66408e-07 
137 1 0.392771 0.0713917 0.378813 55.845 -5.17745e-07 
138 1 0.392911 0.107142 0.420194 55.845 -4.69007e-07 
139 1 0.428564 0.107216 0.37885 55.845 -5.20255e-07 
144 1 0.392887 -4.4769e-05 0.378947 55.845 -5.14785e-07 
145 1 0.392878 0.0356591 0.420217 55.845 -4.59999e-07 
146 1 0.42845 0.0357966 0.378725 55.845 -5.39178e-07 
147 1 0.428594 0.071479 0.420145 55.845 -4.56232e-07 
148 1 0.464257 0.0715002 0.378816 55.845 -5.55136e-07 
149 1 0.464309 0.107147 0.420173 55.845 -4.58796e-07 
150 1 0.428516 2.64633e-05 0.420376 55.845 -3.90215e-07 
151 1 0.464261 -1.84741e-05 0.378694 55.845 -5.26213e-07 
152 1 0.464297 0.0357691 0.420248 55.845 -3.93556e-07 
239 1 0.392879 0.0714569 0.294149 55.845 4.98991e-07 
240 1 0.392869 0.107087 0.337177 55.845 2.5467e-07 
241 1 0.428504 0.107109 0.294184 55.845 4.98232e-07 
246 1 0.392794 -5.9028e-05 0.294223 55.845 5.22136e-07 
247 1 0.392789 0.0356936 0.336958 55.845 2.3524e-07 
248 1 0.428538 0.0356906 0.293989 55.845 4.70341e-07 
249 1 0.428533 0.0714064 0.337103 55.845 2.42174e-07 
250 1 0.464189 0.0714074 0.29417 55.845 4.73331e-07 
251 1 0.464185 0.107166 0.336925 55.845 2.73155e-07 
252 1 0.428567 2.68483e-05 0.33706 55.845 2.90924e-07 
253 1 0.464283 7.55316e-05 0.294234 55.845 4.88269e-07 
254 1 0.464308 0.0356853 0.33718 55.845 3.04121e-07 
342 1 0.39286 0.107191 0.251403 55.845 2.25804e-07 
349 1 0.392846 0.0357035 0.25161 55.845 2.21254e-07 
351 1 0.428439 0.0714626 0.251454 55.845 2.19214e-07 
353 1 0.464221 0.107224 0.251576 55.845 2.83246e-07 
354 1 0.428607 -2.21696e-05 0.251666 55.845 2.71081e-07 
356 1 0.464354 0.0358204 0.251699 55.845 2.90096e-07 
1 1 2.53935e-05 0.17863 0.462039 55.845 4.24335e-07 
2 1 0.0356384 0.214252 0.462048 55.845 3.35517e-07 
4 1 0.0356089 0.142912 0.462134 55.845 4.12061e-07 
5 1 0.0713741 0.178489 0.462218 55.845 3.52808e-07 
6 1 0.107162 0.214312 0.462061 55.845 3.46322e-07 
10 1 0.107137 0.142864 0.461987 55.845 3.64105e-07 
51 1 8.07423e-05 0.178674 0.378758 55.845 -4.44889e-07 
52 1 -1.47565e-05 0.214317 0.420094 55.845 -5.04311e-07 
53 1 0.0357152 0.214282 0.378587 55.845 -4.43464e-07 
54 1 0.0357818 0.250063 0.420103 55.845 -5.0185e-07 
56 1 3.30489e-05 0.142943 0.420116 55.845 -5.00398e-07 
57 1 0.0357652 0.142868 0.378756 55.845 -4.29682e-07 
58 1 0.0358186 0.178599 0.420072 55.845 -5.0189e-07 
59 1 0.0714722 0.178598 0.378614 55.845 -4.50255e-07 
60 1 0.0713427 0.21433 0.420309 55.845 -4.37144e-07 
61 1 0.107102 0.214284 0.378824 55.845 -4.95393e-07 
62 1 0.107157 0.249975 0.420199 55.845 -4.70346e-07 
68 1 0.071379 0.142862 0.420116 55.845 -4.61012e-07 
69 1 0.107126 0.142877 0.378848 55.845 -4.55635e-07 
70 1 0.107132 0.178634 0.420262 55.845 -4.57218e-07 
153 1 1.26762e-05 0.178527 0.293968 55.845 5.30175e-07 
154 1 -1.46317e-05 0.214314 0.337097 55.845 2.22222e-07 
155 1 0.0357144 0.214338 0.29424 55.845 5.58905e-07 
156 1 0.0357368 0.250082 0.337202 55.845 2.83542e-07 
158 1 -8.88436e-06 0.142871 0.337018 55.845 2.23711e-07 
159 1 0.0358673 0.142797 0.294105 55.845 5.38557e-07 
160 1 0.0357738 0.178521 0.336907 55.845 2.06001e-07 
161 1 0.0714703 0.178559 0.294163 55.845 5.48895e-07 
162 1 0.0714255 0.214225 0.337 55.845 2.52323e-07 
163 1 0.107138 0.214323 0.294142 55.845 5.46834e-07 
164 1 0.107201 0.250011 0.337173 55.845 2.46001e-07 
170 1 0.0715259 0.14282 0.33711 55.845 2.46753e-07 
171 1 0.107244 0.142864 0.294274 55.845 5.74743e-07 
172 1 0.10714 0.178625 0.337152 55.845 2.68482e-07 
256 1 4.53559e-05 0.21432 0.251706 55.845 2.36441e-07 
258 1 0.035653 0.250036 0.251536 55.845 2.93084e-07 
260 1 0.000108428 0.142857 0.251667 55.845 2.67711e-07 
262 1 0.0358217 0.178617 0.251591 55.845 2.22181e-07 
264 1 0.0714829 0.214345 0.251627 55.845 3.07535e-07 
266 1 0.107146 0.250057 0.251652 55.845 2.62733e-07 
272 1 0.071502 0.142919 0.251617 55.845 2.81758e-07 
274 1 0.107197 0.178573 0.251654 55.845 3.00408e-07 
11 1 0.142854 0.17855 0.462077 55.845 3.32432e-07 
12 1 0.178679 0.214277 0.462243 55.845 3.49712e-07 
17 1 0.17855 0.14279 0.461992 55.845 3.26231e-07 
18 1 0.21436 0.178597 0.462131 55.845 3.68957e-07 
19 1 0.25009 0.21431 0.462268 55.845 3.04852e-07 
24 1 0.250062 0.142861 0.462025 55.845 3.66037e-07 
71 1 0.142851 0.178524 0.378839 55.845 -4.70488e-07 
72 1 0.142828 0.214288 0.420276 55.845 -4.67481e-07 
73 1 0.178508 0.214327 0.37884 55.845 -4.94319e-07 
82 1 0.142866 0.142873 0.420211 55.845 -4.16578e-07 
83 1 0.178637 0.142873 0.378859 55.845 -4.63465e-07 
84 1 0.17856 0.178656 0.420289 55.845 -4.43834e-07 
85 1 0.214217 0.178564 0.378889 55.845 -5.12956e-07 
86 1 0.214298 0.214332 0.420315 55.845 -4.69744e-07 
87 1 0.249973 0.214262 0.378878 55.845 -4.86079e-07 
96 1 0.21423 0.142805 0.420146 55.845 -4.78565e-07 
97 1 0.249996 0.143013 0.378841 55.845 -5.21011e-07 
98 1 0.25002 0.178571 0.420245 55.845 -4.76634e-07 
173 1 0.142861 0.178526 0.294231 55.845 5.70949e-07 
174 1 0.142799 0.21418 0.33718 55.845 2.64187e-07 
175 1 0.178557 0.214276 0.294255 55.845 4.68947e-07 
184 1 0.142884 0.142847 0.337254 55.845 3.01852e-07 
185 1 0.178515 0.142942 0.294198 55.845 5.17706e-07 
186 1 0.178637 0.178528 0.337064 55.845 2.81805e-07 
187 1 0.214329 0.178572 0.294281 55.845 4.5889e-07 
188 1 0.21431 0.214281 0.33719 55.845 2.63656e-07 
189 1 0.250019 0.214338 0.29414 55.845 4.99799e-07 
198 1 0.214238 0.142783 0.337114 55.845 2.47402e-07 
199 1 0.250033 0.142926 0.294227 55.845 4.97982e-07 
200 1 0.249969 0.178588 0.337193 55.845 2.33316e-07 
276 1 0.142807 0.21433 0.251633 55.845 2.67473e-07 
286 1 0.142889 0.142778 0.251588 55.845 2.85712e-07 
288 1 0.178696 0.178704 0.251681 55.845 2.88592e-07 
290 1 0.214248 0.214306 0.251676 55.845 2.70641e-07 
300 1 0.214209 0.142871 0.25154 55.845 2.81621e-07 
302 1 0.249954 0.178583 0.251616 55.845 2.37425e-07 
25 1 0.28569 0.178566 0.462148 55.845 3.80701e-07 
26 1 0.321556 0.214218 0.462131 55.845 3.40857e-07 
31 1 0.321415 0.142914 0.462181 55.845 3.69913e-07 
32 1 0.357067 0.178614 0.462186 55.845 3.51402e-07 
99 1 0.285768 0.178606 0.378831 55.845 -4.98822e-07 
100 1 0.285733 0.214305 0.420273 55.845 -4.68305e-07 
101 1 0.321431 0.214301 0.378815 55.845 -4.88282e-07 
110 1 0.285728 0.142845 0.420236 55.845 -4.82035e-07 
111 1 0.321396 0.142866 0.378936 55.845 -4.84435e-07 
112 1 0.321391 0.178616 0.420206 55.845 -5.01451e-07 
113 1 0.357182 0.178493 0.378775 55.845 -4.50722e-07 
114 1 0.357191 0.214323 0.420269 55.845 -4.66506e-07 
126 1 0.357077 0.142837 0.420238 55.845 -4.51478e-07 
201 1 0.285724 0.178541 0.29427 55.845 4.81957e-07 
202 1 0.285676 0.214252 0.337277 55.845 2.58429e-07 
203 1 0.321435 0.214319 0.294389 55.845 5.24968e-07 
212 1 0.285714 0.142852 0.337211 55.845 2.05511e-07 
213 1 0.321466 0.142864 0.29428 55.845 5.32578e-07 
214 1 0.32147 0.178535 0.337208 55.845 2.28089e-07 
215 1 0.357141 0.178546 0.294273 55.845 5.19123e-07 
216 1 0.357167 0.214215 0.337268 55.845 2.5205e-07 