ITEM: TIMESTEP
1900
ITEM: NUMBER OF ATOMS
5880
ITEM: BOX BOUNDS pp pp ff
-27.9258 27.9258
-27.9258 27.9258
0 34.092
ITEM: ATOMS id type xs ys zs mass q 
259 1 4.24908e-05 0.107156 0.210809 55.845 -1.77666e-07 
267 1 1.84024e-05 0.0358088 0.21068 55.845 -4.36991e-07 
269 1 0.0357234 0.0713886 0.210664 55.845 -1.29161e-07 
271 1 0.0714574 0.107149 0.210767 55.845 1.12648e-07 
279 1 0.0356979 -7.58544e-06 0.210816 55.845 -1.91029e-07 
281 1 0.0713838 0.0357424 0.210753 55.845 -1.98989e-07 
283 1 0.107138 0.0714279 0.210951 55.845 8.2804e-08 
293 1 0.107132 -9.01887e-06 0.210894 55.845 -2.41172e-08 
361 1 5.47466e-06 0.107073 0.125763 55.845 -1.75055e-07 
369 1 1.52331e-05 0.0356798 0.125753 55.845 -4.73596e-07 
370 1 1.64039e-05 0.0714259 0.168011 55.845 1.86166e-07 
371 1 0.0357512 0.0714127 0.125799 55.845 -2.03449e-07 
372 1 0.0357697 0.107013 0.168107 55.845 1.49086e-07 
373 1 0.0714334 0.107115 0.12582 55.845 -3.26646e-07 
380 1 3.95114e-05 -1.67324e-05 0.16805 55.845 6.31459e-07 
381 1 0.0357523 1.88839e-06 0.125737 55.845 -5.83615e-07 
382 1 0.0357813 0.0357455 0.167979 55.845 1.76512e-07 
383 1 0.0714456 0.0357236 0.125774 55.845 -3.77376e-07 
384 1 0.0714383 0.0713906 0.168075 55.845 3.48637e-07 
385 1 0.107123 0.0713824 0.125778 55.845 -3.3238e-07 
386 1 0.107096 0.107105 0.168062 55.845 2.71175e-07 
394 1 0.0714377 -1.52928e-05 0.16816 55.845 4.35462e-07 
395 1 0.107194 6.71461e-05 0.125854 55.845 -4.8577e-07 
396 1 0.107109 0.0357387 0.168167 55.845 7.29553e-08 
463 1 0 0.107143 0.0416667 55.845 -7.22489e-09 
471 1 0 0.0357143 0.0416667 55.845 -2.54891e-07 
472 1 3.20224e-06 0.0714633 0.0838157 55.845 2.44332e-07 
473 1 0.0357143 0.0714286 0.0416667 55.845 6.05775e-08 
474 1 0.0356379 0.107103 0.0838162 55.845 3.03084e-07 
475 1 0.0714286 0.107143 0.0416667 55.845 2.00278e-08 
482 1 3.46942e-05 -1.44373e-05 0.0837394 55.845 3.17329e-07 
483 1 0.0357143 0 0.0416667 55.845 -1.3936e-07 
484 1 0.035682 0.0357359 0.083723 55.845 2.64275e-07 
485 1 0.0714286 0.0357143 0.0416667 55.845 6.78749e-08 
486 1 0.0714421 0.0714365 0.0837295 55.845 2.87997e-07 
487 1 0.107143 0.0714286 0.0416667 55.845 -8.23721e-08 
488 1 0.107127 0.107141 0.0837919 55.845 1.44989e-07 
496 1 0.0714576 -1.50429e-05 0.0837214 55.845 2.10694e-07 
497 1 0.107143 0 0.0416667 55.845 1.88324e-07 
498 1 0.107159 0.0356509 0.0837337 55.845 2.88315e-07 
567 1 0 0.0714286 0 55.845 -1.73413e-07 
568 1 0.0357143 0.107143 0 55.845 -2.93028e-07 
572 1 0 0 0 55.845 -1.08742e-07 
573 1 0.0357143 0.0357143 0 55.845 -1.90402e-07 
574 1 0.0714286 0.0714286 0 55.845 -2.45255e-07 
575 1 0.107143 0.107143 0 55.845 1.65205e-07 
579 1 0.0714286 0 0 55.845 2.61807e-08 
580 1 0.107143 0.0357143 0 55.845 -1.56337e-07 
285 1 0.142864 0.107115 0.210901 55.845 -8.21256e-08 
295 1 0.142842 0.0357365 0.210803 55.845 -4.07349e-07 
297 1 0.178571 0.071388 0.210836 55.845 1.2525e-07 
299 1 0.214235 0.10706 0.210713 55.845 -3.13575e-07 
307 1 0.178543 5.20619e-06 0.210889 55.845 -4.10027e-07 
309 1 0.214307 0.0356952 0.210846 55.845 -6.28751e-09 
311 1 0.249976 0.071391 0.210656 55.845 -8.34583e-08 
387 1 0.142822 0.107152 0.125814 55.845 -4.13395e-07 
397 1 0.1428 0.0356797 0.125965 55.845 -3.02132e-07 
398 1 0.142823 0.0714223 0.168092 55.845 3.0409e-07 
399 1 0.178577 0.0714427 0.125777 55.845 -3.07922e-07 
400 1 0.178585 0.107076 0.168014 55.845 5.58186e-08 
401 1 0.214318 0.10715 0.125876 55.845 -2.09752e-07 
408 1 0.142837 -2.40792e-05 0.168176 55.845 4.03764e-07 
409 1 0.178581 8.50926e-06 0.125683 55.845 -2.51966e-07 
410 1 0.178534 0.0356731 0.168023 55.845 1.85993e-07 
411 1 0.214285 0.0356659 0.125853 55.845 -3.48834e-07 
412 1 0.214266 0.0713821 0.168034 55.845 2.46862e-07 
413 1 0.250014 0.0714182 0.125805 55.845 -1.27968e-07 
414 1 0.249967 0.107124 0.168126 55.845 6.79425e-08 
424 1 0.21423 -6.87477e-06 0.168082 55.845 2.75889e-07 
426 1 0.250033 0.0356889 0.16794 55.845 2.73318e-07 
489 1 0.142857 0.107143 0.0416667 55.845 -9.08202e-08 
499 1 0.142857 0.0357143 0.0416667 55.845 -1.72443e-07 
500 1 0.142883 0.0713419 0.0836925 55.845 3.29859e-07 
501 1 0.178571 0.0714286 0.0416667 55.845 -3.77728e-07 
502 1 0.178548 0.107077 0.0837316 55.845 3.28437e-07 
503 1 0.214286 0.107143 0.0416667 55.845 -2.54841e-07 
510 1 0.142809 -3.53255e-05 0.0836554 55.845 2.48183e-07 
511 1 0.178571 0 0.0416667 55.845 5.47987e-08 
512 1 0.178593 0.0356721 0.083743 55.845 4.08803e-07 
513 1 0.214286 0.0357143 0.0416667 55.845 -2.47276e-07 
514 1 0.21435 0.0714426 0.0836577 55.845 2.19404e-07 
515 1 0.25 0.0714286 0.0416667 55.845 -1.13109e-07 
516 1 0.250096 0.107195 0.0837658 55.845 1.91571e-07 
526 1 0.214277 2.71008e-05 0.0837799 55.845 2.71581e-07 
528 1 0.250001 0.0357255 0.0836692 55.845 1.97529e-07 
581 1 0.142857 0.0714286 0 55.845 -1.77816e-07 
582 1 0.178571 0.107143 0 55.845 -1.12759e-07 
586 1 0.142857 0 0 55.845 -1.85466e-07 
587 1 0.178571 0.0357143 0 55.845 -2.67645e-07 
588 1 0.214286 0.0714286 0 55.845 -3.75237e-08 
589 1 0.25 0.107143 0 55.845 4.55222e-08 
594 1 0.214286 0 0 55.845 1.60882e-07 
595 1 0.25 0.0357143 0 55.845 -3.45805e-07 
313 1 0.285702 0.107145 0.210855 55.845 8.97427e-08 
323 1 0.250003 3.92727e-05 0.210779 55.845 -6.59795e-08 
325 1 0.285717 0.0357319 0.210684 55.845 -4.54701e-08 
327 1 0.321451 0.071429 0.210767 55.845 6.57308e-07 
329 1 0.357125 0.10718 0.210701 55.845 3.39995e-07 
337 1 0.3214 2.6938e-06 0.210751 55.845 2.67881e-07 
339 1 0.35712 0.0357302 0.210697 55.845 3.70775e-07 
415 1 0.285749 0.107161 0.125865 55.845 -1.06614e-07 
425 1 0.24995 -1.23933e-05 0.125833 55.845 -1.73403e-07 
427 1 0.285709 0.0357424 0.125859 55.845 -5.58498e-08 
428 1 0.285721 0.0714929 0.167998 55.845 9.49932e-08 
429 1 0.321436 0.0713767 0.125801 55.845 -1.90581e-07 
430 1 0.321447 0.107101 0.16814 55.845 1.52602e-07 
431 1 0.357088 0.107158 0.125614 55.845 -2.58797e-07 
439 1 0.321417 2.58326e-05 0.12587 55.845 -1.57411e-07 
440 1 0.321392 0.0357069 0.168012 55.845 5.67934e-09 
441 1 0.357153 0.0357091 0.125784 55.845 -5.3667e-08 
442 1 0.35717 0.0714435 0.167984 55.845 -1.95577e-07 
517 1 0.285714 0.107143 0.0416667 55.845 -3.30754e-08 
527 1 0.25 0 0.0416667 55.845 1.93191e-09 
529 1 0.285714 0.0357143 0.0416667 55.845 3.92123e-08 
530 1 0.28571 0.0714713 0.0837155 55.845 2.24527e-07 
531 1 0.321429 0.0714286 0.0416667 55.845 3.93331e-07 
532 1 0.321382 0.107144 0.0836889 55.845 1.59645e-07 
533 1 0.357143 0.107143 0.0416667 55.845 3.31035e-07 
603 1 0.357143 0.0714286 0 55.845 -8.45631e-08 
541 1 0.321429 0 0.0416667 55.845 1.80339e-07 
542 1 0.321426 0.0356983 0.0837852 55.845 2.72151e-07 
543 1 0.357143 0.0357143 0.0416667 55.845 3.85005e-07 
544 1 0.35716 0.071407 0.0837766 55.845 8.26067e-08 
602 1 0.321429 0.0357143 0 55.845 -3.65553e-08 
596 1 0.285714 0.0714286 0 55.845 -7.22036e-08 
597 1 0.321429 0.107143 0 55.845 -1.01817e-08 
612 1 0.464286 0.0357143 0 55.845 -2.97386e-08 
611 1 0.428571 0 0 55.845 5.38135e-08 
610 1 0.464286 0.107143 0 55.845 -2.39239e-07 
609 1 0.428571 0.0714286 0 55.845 -5.7138e-08 
608 1 0.392857 0.0357143 0 55.845 -2.04842e-07 
341 1 0.392851 0.0714123 0.210748 55.845 3.83696e-07 
343 1 0.428536 0.107148 0.21079 55.845 3.03546e-08 
348 1 0.392859 3.64184e-05 0.210689 55.845 3.90966e-07 
350 1 0.428613 0.0356918 0.210795 55.845 3.52999e-07 
352 1 0.464271 0.071418 0.210709 55.845 1.76021e-07 
355 1 0.46426 -2.86665e-05 0.21076 55.845 4.29847e-07 
443 1 0.392881 0.0713745 0.125777 55.845 -3.82637e-08 
444 1 0.392813 0.107158 0.168037 55.845 -6.08143e-08 
445 1 0.428572 0.107125 0.125812 55.845 -1.92063e-08 
604 1 0.392857 0.107143 0 55.845 -3.18652e-07 
450 1 0.392786 3.17542e-05 0.125734 55.845 2.88709e-08 
451 1 0.392891 0.0356672 0.168069 55.845 1.41777e-08 
452 1 0.428537 0.0357877 0.12581 55.845 -6.20634e-08 
453 1 0.428596 0.071466 0.16825 55.845 1.05349e-07 
454 1 0.46434 0.0714475 0.125874 55.845 6.13533e-08 
455 1 0.464313 0.107177 0.168037 55.845 -1.11225e-07 
456 1 0.428527 3.39611e-05 0.167976 55.845 -9.87911e-08 
457 1 0.464271 1.34828e-05 0.125773 55.845 -4.91902e-08 
458 1 0.464236 0.0357014 0.167954 55.845 -4.4118e-08 
545 1 0.392857 0.0714286 0.0416667 55.845 1.64541e-07 
546 1 0.392889 0.10712 0.0836946 55.845 1.49379e-07 
547 1 0.428571 0.107143 0.0416667 55.845 1.03501e-07 
552 1 0.392857 0 0.0416667 55.845 1.32332e-07 
553 1 0.392813 0.0357167 0.0837315 55.845 1.12292e-07 
554 1 0.428571 0.0357143 0.0416667 55.845 8.67987e-08 
555 1 0.428575 0.0714436 0.0837165 55.845 2.94504e-08 
556 1 0.464286 0.0714286 0.0416667 55.845 -5.88119e-08 
557 1 0.464186 0.107097 0.0836982 55.845 1.50235e-07 
558 1 0.428616 2.33888e-05 0.08368 55.845 2.1608e-07 
559 1 0.464286 0 0.0416667 55.845 -6.13245e-08 
560 1 0.464317 0.0357828 0.0837195 55.845 1.43856e-07 
255 1 6.30665e-05 0.178566 0.210706 55.845 -2.0304e-07 
257 1 0.0357702 0.214245 0.210716 55.845 -2.86448e-07 
261 1 0.0358011 0.142859 0.210726 55.845 1.75988e-07 
263 1 0.0714495 0.178585 0.210781 55.845 1.46622e-07 
265 1 0.1072 0.214248 0.210782 55.845 -6.02153e-08 
273 1 0.107157 0.142758 0.210657 55.845 8.60871e-08 
357 1 -4.9774e-05 0.178538 0.125723 55.845 -2.78513e-07 
358 1 1.46374e-05 0.214296 0.168031 55.845 3.23035e-08 
359 1 0.0357982 0.214258 0.125853 55.845 -1.87205e-07 
360 1 0.0357985 0.249971 0.168038 55.845 1.64105e-07 
362 1 5.20116e-05 0.142811 0.168051 55.845 -8.54486e-09 
363 1 0.0357359 0.142816 0.125747 55.845 -2.44374e-07 
364 1 0.0357114 0.178553 0.168049 55.845 -1.56849e-07 
365 1 0.0714728 0.178554 0.125843 55.845 -1.83534e-07 
366 1 0.0714401 0.214336 0.168087 55.845 1.5399e-07 
367 1 0.107113 0.214238 0.125739 55.845 -3.55247e-07 
368 1 0.107118 0.249939 0.168051 55.845 2.29613e-07 
374 1 0.0714103 0.142817 0.168038 55.845 2.63863e-07 
375 1 0.107191 0.14287 0.12576 55.845 -4.20786e-07 
376 1 0.107167 0.178566 0.168064 55.845 7.70358e-08 
459 1 0 0.178571 0.0416667 55.845 -1.68796e-07 
460 1 8.28203e-06 0.214359 0.0837324 55.845 -2.15624e-07 
461 1 0.0357143 0.214286 0.0416667 55.845 -6.34949e-08 
462 1 0.0357102 0.249975 0.0836434 55.845 1.19021e-07 
464 1 3.59506e-05 0.142915 0.0837418 55.845 2.39715e-07 
465 1 0.0357143 0.142857 0.0416667 55.845 1.36432e-07 
466 1 0.0356582 0.178591 0.0837323 55.845 1.49804e-07 
467 1 0.0714286 0.178571 0.0416667 55.845 -5.42935e-08 
468 1 0.0714422 0.214309 0.0837029 55.845 1.06838e-07 
469 1 0.107143 0.214286 0.0416667 55.845 9.30571e-08 
470 1 0.107112 0.250007 0.0837077 55.845 2.32748e-07 
476 1 0.0713957 0.142844 0.0837781 55.845 1.51425e-07 
477 1 0.107143 0.142857 0.0416667 55.845 -1.5224e-07 
478 1 0.107194 0.1785 0.0836777 55.845 2.17258e-07 
561 1 0 0.214286 0 55.845 -5.44646e-08 
562 1 0.0357143 0.25 0 55.845 -2.40409e-07 
563 1 0 0.142857 0 55.845 -1.78759e-07 
564 1 0.0357143 0.178571 0 55.845 -2.43591e-08 
565 1 0.0714286 0.214286 0 55.845 -1.61745e-07 
566 1 0.107143 0.25 0 55.845 -1.32365e-07 
569 1 0.0714286 0.142857 0 55.845 -7.76199e-08 
570 1 0.107143 0.178571 0 55.845 -6.23889e-08 
275 1 0.142847 0.178583 0.21083 55.845 2.01541e-07 
277 1 0.178634 0.214356 0.210687 55.845 -1.90493e-07 
287 1 0.178635 0.142828 0.210766 55.845 -1.10558e-07 
289 1 0.214302 0.17857 0.210799 55.845 -1.34758e-07 
291 1 0.249958 0.214225 0.210798 55.845 -1.53598e-07 
301 1 0.250039 0.142813 0.210771 55.845 8.66726e-09 
377 1 0.142876 0.178593 0.125782 55.845 -2.67248e-07 
378 1 0.142914 0.214179 0.168043 55.845 1.55086e-07 
379 1 0.178635 0.214237 0.125735 55.845 -3.59293e-07 
388 1 0.142869 0.142802 0.168096 55.845 1.69884e-07 
389 1 0.178513 0.142818 0.125799 55.845 -3.86864e-07 
390 1 0.178551 0.178545 0.168013 55.845 1.73519e-07 
391 1 0.214262 0.178565 0.125739 55.845 -2.89577e-07 
392 1 0.21425 0.214233 0.167992 55.845 3.56451e-09 
393 1 0.250068 0.21428 0.125843 55.845 -2.89245e-07 
402 1 0.214263 0.142826 0.16802 55.845 1.4779e-07 
403 1 0.249995 0.142858 0.125797 55.845 -2.42266e-07 
404 1 0.249987 0.178531 0.168041 55.845 2.11719e-07 
479 1 0.142857 0.178571 0.0416667 55.845 -2.15474e-07 
480 1 0.142832 0.214351 0.0837482 55.845 9.74162e-08 
481 1 0.178571 0.214286 0.0416667 55.845 -1.60567e-07 
490 1 0.142807 0.142855 0.0837665 55.845 5.08505e-07 
491 1 0.178571 0.142857 0.0416667 55.845 -4.196e-07 
492 1 0.178587 0.178551 0.0836531 55.845 3.20866e-07 
493 1 0.214286 0.178571 0.0416667 55.845 -3.59691e-07 
494 1 0.214259 0.214293 0.0836168 55.845 1.34326e-07 
495 1 0.25 0.214286 0.0416667 55.845 -3.12834e-07 
504 1 0.214274 0.142823 0.0837617 55.845 2.75193e-07 
505 1 0.25 0.142857 0.0416667 55.845 -2.83113e-07 
506 1 0.249963 0.178567 0.0836699 55.845 2.52189e-07 
571 1 0.142857 0.214286 0 55.845 1.14483e-08 
576 1 0.142857 0.142857 0 55.845 4.62026e-08 
577 1 0.178571 0.178571 0 55.845 -1.37849e-08 
578 1 0.214286 0.214286 0 55.845 9.21595e-08 
583 1 0.214286 0.142857 0 55.845 9.83363e-08 
584 1 0.25 0.178571 0 55.845 1.2628e-07 
303 1 0.285746 0.178482 0.210744 55.845 -5.42946e-08 
305 1 0.32145 0.214243 0.210649 55.845 5.78924e-08 
315 1 0.321434 0.142833 0.210782 55.845 2.15742e-07 
317 1 0.357129 0.178573 0.210763 55.845 1.34755e-07 
405 1 0.285669 0.178618 0.125782 55.845 -4.42178e-07 
406 1 0.28569 0.214259 0.168148 55.845 2.97734e-07 
407 1 0.321432 0.214339 0.125807 55.845 -3.82717e-07 
416 1 0.285665 0.142888 0.168004 55.845 2.14734e-07 
417 1 0.3214 0.142817 0.125842 55.845 -2.81748e-07 
418 1 0.321431 0.178547 0.16807 55.845 1.22868e-07 
419 1 0.35718 0.178567 0.125706 55.845 -3.13769e-07 
420 1 0.357167 0.214326 0.16797 55.845 3.11013e-07 
432 1 0.357164 0.142834 0.168049 55.845 1.76407e-08 
507 1 0.285714 0.178571 0.0416667 55.845 -2.20932e-07 
508 1 0.285756 0.214318 0.0837125 55.845 2.2159e-07 
509 1 0.321429 0.214286 0.0416667 55.845 2.93215e-08 
518 1 0.285678 0.142861 0.0837572 55.845 2.3009e-07 
519 1 0.321429 0.142857 0.0416667 55.845 5.87822e-08 
520 1 0.321419 0.178556 0.0838166 55.845 2.43318e-07 
521 1 0.357143 0.178571 0.0416667 55.845 1.69532e-07 
522 1 0.357182 0.214319 0.083766 55.845 1.19631e-07 
534 1 0.357133 0.142875 0.0837768 55.845 1.91123e-07 
585 1 0.285714 0.214286 0 55.845 -1.25158e-07 
590 1 0.285714 0.142857 0 55.845 1.26101e-07 
591 1 0.321429 0.178571 0 55.845 -5.57333e-08 
592 1 0.357143 0.214286 0 55.845 -2.31705e-07 
598 1 0.357143 0.142857 0 55.845 -2.77998e-07 
319 1 0.392841 0.214314 0.210803 55.845 -1.20839e-07 
321 1 0.428588 0.250037 0.2109 55.845 -2.85002e-07 
331 1 0.392905 0.14293 0.210655 55.845 -1.30648e-08 
333 1 0.428571 0.17859 0.210783 55.845 -1.86413e-07 
335 1 0.46421 0.214351 0.210804 55.845 -5.19079e-07 
345 1 0.464304 0.142924 0.210759 55.845 -2.16164e-07 
606 1 0.464286 0.178571 0 55.845 -9.80861e-08 
421 1 0.392892 0.214353 0.125743 55.845 -4.7247e-07 
422 1 0.392921 0.250042 0.168014 55.845 2.46511e-07 
423 1 0.428558 0.250033 0.125909 55.845 -3.31421e-07 
433 1 0.392917 0.142834 0.125796 55.845 -2.46812e-07 
434 1 0.392871 0.17861 0.167996 55.845 3.97483e-07 
435 1 0.428574 0.178618 0.125826 55.845 -3.1113e-07 
436 1 0.428549 0.214373 0.168024 55.845 3.69897e-07 
437 1 0.464231 0.214349 0.125768 55.845 -2.08521e-07 
605 1 0.428571 0.142857 0 55.845 5.91185e-08 
446 1 0.428564 0.142903 0.168022 55.845 2.53579e-07 
447 1 0.464289 0.142894 0.125802 55.845 -1.59437e-07 
448 1 0.46424 0.178704 0.167986 55.845 2.35769e-07 
523 1 0.392857 0.214286 0.0416667 55.845 1.27008e-07 
524 1 0.392874 0.249982 0.0836425 55.845 1.98852e-07 
525 1 0.428571 0.25 0.0416667 55.845 -1.77536e-09 
535 1 0.392857 0.142857 0.0416667 55.845 3.29712e-08 
536 1 0.392843 0.178595 0.0837 55.845 1.07657e-07 
537 1 0.428571 0.178571 0.0416667 55.845 -1.79483e-07 
538 1 0.42859 0.214239 0.0837079 55.845 2.12244e-07 
539 1 0.464286 0.214286 0.0416667 55.845 1.0487e-07 
548 1 0.428598 0.142876 0.0837452 55.845 5.74647e-08 
549 1 0.464286 0.142857 0.0416667 55.845 -2.08499e-07 
550 1 0.46425 0.17858 0.0837119 55.845 2.7278e-07 
593 1 0.392857 0.25 0 55.845 -3.24263e-07 
599 1 0.392857 0.178571 0 55.845 -3.52544e-08 
600 1 0.428571 0.214286 0 55.845 -1.23765e-07 
3 1 -1.31438e-05 0.107103 0.46234 55.845 -2.01052e-07 
7 1 4.00373e-05 0.0357599 0.462262 55.845 -1.84946e-07 
8 1 0.0357134 0.0714503 0.462214 55.845 -1.07494e-07 
9 1 0.0713976 0.107103 0.462124 55.845 2.18679e-07 
13 1 0.0356437 1.33086e-05 0.46225 55.845 -7.41071e-08 
14 1 0.0714367 0.0356965 0.462162 55.845 -2.81671e-07 
15 1 0.107089 0.0713965 0.462178 55.845 -2.52433e-07 
20 1 0.107159 -2.53551e-06 0.462211 55.845 -1.2081e-07 
55 1 -5.61957e-05 0.107119 0.379592 55.845 2.92361e-08 
63 1 -3.05268e-05 0.0356552 0.379611 55.845 -1.26021e-07 
64 1 4.96114e-05 0.0713861 0.421287 55.845 -5.54295e-08 
65 1 0.0356899 0.0714046 0.379599 55.845 7.17388e-08 
66 1 0.0356401 0.107084 0.421223 55.845 -2.96379e-07 
67 1 0.0714066 0.10716 0.379597 55.845 9.47035e-08 
74 1 9.8959e-06 1.28705e-05 0.421199 55.845 -1.68391e-08 
75 1 0.0357046 -4.03754e-05 0.379697 55.845 -7.3347e-08 
76 1 0.0356899 0.0356821 0.42123 55.845 -3.77943e-08 
77 1 0.0714741 0.0356797 0.379757 55.845 -1.85471e-07 
78 1 0.0714214 0.0714505 0.421164 55.845 -3.28966e-07 
79 1 0.107123 0.0713986 0.379674 55.845 2.95978e-08 
80 1 0.107085 0.107114 0.421132 55.845 -5.89143e-07 
88 1 0.0714318 -3.30322e-05 0.421125 55.845 -1.79937e-07 
89 1 0.107195 -3.99453e-06 0.379736 55.845 -2.00527e-07 
90 1 0.107125 0.035717 0.421176 55.845 -1.83124e-07 
157 1 -3.35347e-05 0.107177 0.295281 55.845 -2.38675e-07 
165 1 -8.26341e-05 0.035724 0.295142 55.845 -4.0794e-07 
166 1 4.14895e-05 0.0714468 0.337268 55.845 6.33828e-07 
167 1 0.035763 0.0713958 0.295125 55.845 -1.77552e-07 
168 1 0.0356939 0.107237 0.337265 55.845 5.47021e-07 
169 1 0.071417 0.107118 0.295164 55.845 -1.814e-07 
176 1 2.15165e-05 4.03093e-06 0.337313 55.845 3.97795e-07 
177 1 0.0357387 3.93429e-05 0.295301 55.845 -4.75744e-07 
178 1 0.0357128 0.0356731 0.337237 55.845 3.36842e-07 
179 1 0.0714228 0.0356287 0.295237 55.845 -2.58058e-07 
180 1 0.0714608 0.0714729 0.337287 55.845 4.00406e-07 
181 1 0.107183 0.0714123 0.295245 55.845 -2.39167e-07 
182 1 0.107168 0.107135 0.337384 55.845 9.41783e-08 
190 1 0.0715533 -1.51198e-05 0.337312 55.845 4.60832e-07 
191 1 0.107136 -1.34431e-05 0.295157 55.845 -4.50608e-07 
192 1 0.107143 0.0356478 0.337302 55.845 3.50851e-07 
268 1 2.79003e-06 0.0714743 0.253123 55.845 2.8355e-07 
270 1 0.0356507 0.107173 0.253038 55.845 -1.83244e-07 
278 1 6.49976e-05 1.15742e-05 0.253058 55.845 2.58158e-07 
280 1 0.0357117 0.0357123 0.252953 55.845 2.63321e-08 
282 1 0.0714042 0.0714364 0.253039 55.845 -1.05192e-08 
284 1 0.107175 0.107109 0.253073 55.845 -8.86404e-08 
292 1 0.0713988 5.54858e-05 0.253097 55.845 -2.66279e-07 
294 1 0.10714 0.0357468 0.253103 55.845 -1.68369e-07 
16 1 0.142826 0.107129 0.462225 55.845 -1.55195e-07 
21 1 0.142839 0.0356721 0.462187 55.845 -1.03886e-07 
22 1 0.178587 0.0713762 0.462186 55.845 -2.66193e-07 
23 1 0.214275 0.107135 0.462352 55.845 -2.33831e-07 
27 1 0.178577 -8.65983e-05 0.462345 55.845 -3.15375e-07 
28 1 0.214316 0.0356566 0.462282 55.845 -5.57862e-07 
29 1 0.250031 0.071458 0.462346 55.845 -2.12345e-07 
81 1 0.142866 0.107174 0.379796 55.845 2.76981e-07 
91 1 0.142824 0.0357256 0.379707 55.845 5.25643e-09 
92 1 0.142749 0.0714038 0.421274 55.845 -2.94998e-07 
93 1 0.178525 0.0715507 0.379714 55.845 -4.44929e-08 
94 1 0.178552 0.107206 0.421349 55.845 -2.96192e-07 
95 1 0.214291 0.107212 0.379812 55.845 4.07751e-07 
102 1 0.142873 -5.59619e-05 0.421207 55.845 1.05938e-08 
103 1 0.178508 -8.98029e-08 0.379762 55.845 -1.47198e-07 
104 1 0.178554 0.0356795 0.421176 55.845 -1.19996e-08 
105 1 0.214325 0.0356756 0.379829 55.845 -2.60049e-07 
106 1 0.214316 0.0713999 0.421287 55.845 -2.00744e-07 
107 1 0.249981 0.0714104 0.379711 55.845 3.53115e-07 
108 1 0.249992 0.10712 0.421355 55.845 -4.74887e-07 
118 1 0.214299 -3.51315e-05 0.421384 55.845 1.37941e-07 
120 1 0.250006 0.0357327 0.421334 55.845 -1.84746e-08 
183 1 0.142876 0.107149 0.295319 55.845 -2.23869e-07 
193 1 0.142841 0.0357352 0.295214 55.845 -2.47961e-07 
194 1 0.142868 0.0714091 0.337424 55.845 1.17963e-07 
195 1 0.178568 0.0714964 0.295259 55.845 -4.82417e-07 
196 1 0.178551 0.107202 0.337347 55.845 -8.69802e-08 
197 1 0.214329 0.107186 0.295357 55.845 -3.56707e-07 
204 1 0.142807 -1.37504e-05 0.337161 55.845 4.3842e-07 
205 1 0.178524 -9.5219e-06 0.295166 55.845 -3.06907e-07 
206 1 0.178632 0.0356866 0.337367 55.845 3.78508e-07 
207 1 0.214264 0.0356432 0.295313 55.845 -3.93421e-07 
208 1 0.214316 0.0714357 0.337259 55.845 1.42716e-07 
209 1 0.250024 0.0714811 0.295235 55.845 -2.61693e-07 
210 1 0.250032 0.107165 0.337382 55.845 -1.16125e-07 
220 1 0.21432 -3.52995e-05 0.337408 55.845 6.40408e-07 
222 1 0.250017 0.0356541 0.337309 55.845 2.38844e-07 
296 1 0.142876 0.0714388 0.253028 55.845 2.43871e-07 
298 1 0.178662 0.10714 0.253002 55.845 5.15307e-07 
306 1 0.142805 1.48679e-05 0.253059 55.845 -1.1056e-07 
308 1 0.178569 0.0357044 0.252979 55.845 1.5836e-07 
310 1 0.214343 0.0713509 0.25305 55.845 3.04281e-07 
312 1 0.250006 0.107086 0.253014 55.845 3.83567e-07 
322 1 0.214307 -1.69591e-05 0.253005 55.845 7.13397e-09 
324 1 0.250062 0.0357202 0.252956 55.845 3.45011e-08 
30 1 0.285766 0.107206 0.462236 55.845 -1.05558e-07 
35 1 0.2501 2.41226e-06 0.462269 55.845 -3.42974e-07 
36 1 0.285746 0.0357335 0.462444 55.845 -1.44831e-07 
37 1 0.321486 0.0714087 0.462295 55.845 3.51066e-08 
38 1 0.357218 0.107127 0.462346 55.845 1.72288e-07 
42 1 0.321447 2.19741e-05 0.462286 55.845 -1.5777e-07 
43 1 0.357162 0.0357523 0.462236 55.845 1.45995e-07 
109 1 0.28576 0.107087 0.379793 55.845 3.89911e-07 
119 1 0.249964 5.52886e-07 0.379815 55.845 -1.57766e-07 
121 1 0.285648 0.035688 0.379782 55.845 4.67814e-08 
122 1 0.285736 0.0714503 0.421364 55.845 -3.10914e-07 
123 1 0.321483 0.071373 0.37968 55.845 2.12759e-07 
124 1 0.321445 0.107096 0.421181 55.845 -4.67978e-07 
125 1 0.357188 0.107123 0.379761 55.845 1.95088e-07 
133 1 0.321427 2.77579e-05 0.379743 55.845 1.70705e-07 
134 1 0.321381 0.0357533 0.421271 55.845 -1.79724e-07 
135 1 0.357166 0.0356742 0.379678 55.845 2.10859e-07 
136 1 0.357236 0.0714466 0.421198 55.845 -3.85913e-07 
211 1 0.285682 0.107093 0.295191 55.845 -1.98655e-07 
221 1 0.250027 -1.41377e-05 0.295065 55.845 -5.20596e-08 
223 1 0.285764 0.0357444 0.295195 55.845 5.70018e-09 
224 1 0.285699 0.0713512 0.337334 55.845 7.40711e-08 
225 1 0.321463 0.0714687 0.295218 55.845 6.10231e-08 
226 1 0.321426 0.10716 0.337339 55.845 8.4519e-08 
227 1 0.357164 0.107186 0.295217 55.845 8.77614e-08 
235 1 0.321419 -3.30383e-05 0.295241 55.845 9.00648e-08 
236 1 0.321429 0.035766 0.337256 55.845 1.23929e-07 
237 1 0.357145 0.0357529 0.295194 55.845 3.52906e-07 
238 1 0.35716 0.0714192 0.337393 55.845 7.93278e-09 
326 1 0.285727 0.0713585 0.252993 55.845 -2.13516e-07 
328 1 0.321426 0.107146 0.252984 55.845 -5.55495e-07 
338 1 0.321432 0.0356925 0.253025 55.845 -2.47791e-07 
340 1 0.357102 0.071449 0.25305 55.845 -4.42219e-07 
44 1 0.392862 0.0714645 0.462345 55.845 -9.52512e-08 
45 1 0.428636 0.10726 0.462168 55.845 6.27927e-08 
47 1 0.392833 2.58212e-05 0.462294 55.845 -5.65599e-09 
48 1 0.428608 0.0357749 0.462264 55.845 6.55498e-08 
49 1 0.464366 0.0714029 0.462165 55.845 -1.63906e-08 
50 1 0.464352 -3.16744e-05 0.462333 55.845 -8.8963e-08 
137 1 0.392964 0.0713831 0.37974 55.845 4.00903e-07 
138 1 0.392902 0.107165 0.421284 55.845 -3.83168e-07 
139 1 0.428588 0.107179 0.379622 55.845 2.51997e-07 
144 1 0.392795 1.59144e-06 0.37968 55.845 2.2063e-07 
145 1 0.392914 0.0357374 0.421275 55.845 -4.77077e-07 
146 1 0.428612 0.0357237 0.379765 55.845 4.70512e-07 
147 1 0.428566 0.0714693 0.42127 55.845 -2.64017e-07 
148 1 0.464295 0.0713169 0.379709 55.845 2.28163e-07 
149 1 0.464303 0.107146 0.421111 55.845 -5.55528e-08 
150 1 0.428533 -1.1186e-05 0.421338 55.845 -3.8367e-07 
151 1 0.464295 -5.18854e-05 0.379802 55.845 3.30693e-07 
152 1 0.464314 0.035705 0.421232 55.845 -5.34668e-07 
239 1 0.392855 0.0713762 0.295162 55.845 2.12271e-07 
240 1 0.392841 0.10715 0.337383 55.845 1.51399e-07 
241 1 0.428543 0.107148 0.295086 55.845 1.86998e-07 
246 1 0.392805 -6.60421e-05 0.295036 55.845 1.75146e-07 
247 1 0.392934 0.0357244 0.337315 55.845 -3.04802e-08 
248 1 0.428668 0.0356542 0.295097 55.845 1.78219e-07 
249 1 0.428618 0.0714195 0.337283 55.845 -1.01218e-07 
250 1 0.464325 0.0714223 0.2951 55.845 -3.45434e-08 
251 1 0.464364 0.107088 0.337319 55.845 -1.90165e-07 
252 1 0.42857 3.31328e-05 0.337415 55.845 -2.80044e-07 
253 1 0.464249 -4.9098e-05 0.295093 55.845 1.71854e-07 
254 1 0.464287 0.0356697 0.337306 55.845 1.45576e-07 
342 1 0.392773 0.107138 0.25293 55.845 -5.13357e-07 
349 1 0.392877 0.0357175 0.252931 55.845 -6.26939e-07 
351 1 0.428541 0.0713906 0.253059 55.845 -3.78334e-07 
353 1 0.464343 0.107083 0.253029 55.845 8.57115e-08 
354 1 0.428524 -1.62733e-05 0.252953 55.845 -2.32118e-07 
356 1 0.464343 0.0357382 0.252979 55.845 -4.41367e-07 
1 1 4.994e-05 0.178601 0.462308 55.845 7.20792e-08 
2 1 0.0358074 0.214309 0.462404 55.845 -4.41522e-08 
4 1 0.0357194 0.142847 0.46228 55.845 -4.19085e-08 
5 1 0.0715166 0.178584 0.462266 55.845 -4.5248e-08 
6 1 0.10719 0.214351 0.462336 55.845 -5.2428e-08 
10 1 0.107099 0.142804 0.462139 55.845 -1.60188e-08 
51 1 9.61048e-05 0.178573 0.3798 55.845 1.57434e-07 
52 1 7.38021e-05 0.214329 0.421241 55.845 -8.47065e-08 
53 1 0.0357292 0.214294 0.379742 55.845 1.27795e-07 
54 1 0.0356627 0.249997 0.421245 55.845 -2.50637e-07 
56 1 5.04812e-06 0.142805 0.421308 55.845 -1.24289e-07 
57 1 0.0357261 0.142924 0.379671 55.845 1.42786e-07 
58 1 0.0357693 0.178557 0.421359 55.845 -1.48711e-07 
59 1 0.0714221 0.178601 0.379676 55.845 6.44765e-08 
60 1 0.0714731 0.214316 0.421295 55.845 -1.53184e-07 
61 1 0.107142 0.214325 0.379724 55.845 4.53738e-08 
62 1 0.107192 0.250078 0.421267 55.845 -2.5722e-07 
68 1 0.0714267 0.142833 0.421192 55.845 -4.19257e-07 
69 1 0.107186 0.142799 0.379683 55.845 1.9504e-07 
70 1 0.107197 0.17859 0.421205 55.845 -4.04102e-07 
153 1 7.07646e-05 0.178549 0.294998 55.845 -4.96366e-08 
154 1 3.39234e-05 0.214265 0.337359 55.845 2.39842e-07 
155 1 0.0357296 0.214336 0.295246 55.845 -2.20336e-07 
156 1 0.0356923 0.250016 0.337209 55.845 3.62582e-07 
158 1 -4.55632e-06 0.142874 0.337272 55.845 4.27414e-07 
159 1 0.0357073 0.142954 0.29517 55.845 -1.9559e-07 
160 1 0.0357068 0.178587 0.337329 55.845 1.75139e-07 
161 1 0.0714203 0.178561 0.295185 55.845 1.06165e-07 
162 1 0.0714359 0.214337 0.337319 55.845 2.79909e-07 
163 1 0.107162 0.214331 0.295115 55.845 -1.42815e-07 
164 1 0.107183 0.250025 0.337333 55.845 4.11543e-07 
170 1 0.0714714 0.142852 0.337209 55.845 8.43217e-08 
171 1 0.107157 0.142783 0.295118 55.845 -2.82324e-07 
172 1 0.107152 0.178566 0.337349 55.845 2.44329e-07 
256 1 5.91601e-06 0.214264 0.252923 55.845 -4.19442e-07 
258 1 0.0356875 0.249944 0.252985 55.845 -1.15837e-07 
260 1 6.7641e-05 0.14288 0.252902 55.845 -1.54104e-07 
262 1 0.0357379 0.178553 0.252975 55.845 -1.81162e-07 
264 1 0.0714748 0.214291 0.253035 55.845 -4.24709e-07 
266 1 0.107134 0.249946 0.253027 55.845 -2.13362e-07 
272 1 0.0714703 0.142834 0.252992 55.845 -1.70774e-07 
274 1 0.107136 0.178526 0.253051 55.845 3.24195e-09 
11 1 0.142884 0.178675 0.462255 55.845 3.03379e-08 
12 1 0.178558 0.214342 0.462211 55.845 -5.37874e-09 
17 1 0.17854 0.142875 0.46234 55.845 -3.80938e-08 
18 1 0.214223 0.178696 0.462303 55.845 1.4691e-07 
19 1 0.249977 0.214307 0.462281 55.845 3.16202e-08 
24 1 0.250001 0.142819 0.462301 55.845 -1.52082e-07 
71 1 0.142821 0.17858 0.379702 55.845 9.57612e-08 
72 1 0.142837 0.214333 0.421269 55.845 -4.36266e-07 
73 1 0.178503 0.214334 0.3798 55.845 -6.35092e-08 
82 1 0.142907 0.142852 0.421349 55.845 -2.77015e-07 
83 1 0.178539 0.142864 0.379675 55.845 2.52284e-07 
84 1 0.178546 0.178565 0.421278 55.845 -1.53306e-07 
85 1 0.214261 0.17858 0.379696 55.845 2.28538e-07 
86 1 0.214275 0.214345 0.421222 55.845 -8.03792e-08 
87 1 0.250002 0.214314 0.379607 55.845 1.74509e-07 
96 1 0.214249 0.142909 0.421393 55.845 -4.7447e-07 
97 1 0.250027 0.142876 0.379886 55.845 3.06744e-07 
98 1 0.25001 0.178587 0.421271 55.845 -2.25428e-07 
173 1 0.142896 0.178568 0.295106 55.845 -6.14831e-08 
174 1 0.142847 0.214307 0.337322 55.845 2.87343e-07 
175 1 0.178559 0.214274 0.295213 55.845 -1.46155e-07 
184 1 0.142894 0.142879 0.33723 55.845 1.9386e-08 
185 1 0.178561 0.142873 0.295286 55.845 -3.61037e-07 
186 1 0.178615 0.178633 0.337346 55.845 -3.07782e-07 
187 1 0.214282 0.178541 0.295157 55.845 -3.34892e-07 
188 1 0.214232 0.214313 0.337313 55.845 1.75462e-07 
189 1 0.24994 0.214297 0.295246 55.845 -5.96824e-08 
198 1 0.214329 0.142877 0.337452 55.845 -1.39409e-07 
199 1 0.250045 0.142851 0.295121 55.845 -1.45172e-07 
200 1 0.249991 0.178566 0.337403 55.845 -1.2663e-07 
276 1 0.142866 0.214247 0.253028 55.845 1.03091e-07 
286 1 0.142879 0.142762 0.25298 55.845 1.64859e-07 
288 1 0.178575 0.178605 0.25305 55.845 4.9888e-07 
290 1 0.214246 0.214281 0.253083 55.845 1.29876e-07 
300 1 0.214274 0.142812 0.253112 55.845 3.96663e-07 
302 1 0.250004 0.178519 0.253018 55.845 1.32939e-07 
25 1 0.285702 0.178581 0.46215 55.845 2.29545e-07 
26 1 0.321423 0.214195 0.462226 55.845 -1.03714e-07 
31 1 0.321434 0.142819 0.462273 55.845 1.20637e-07 
32 1 0.357152 0.178513 0.46233 55.845 -6.2453e-08 
99 1 0.285766 0.178561 0.379653 55.845 -1.91133e-09 
100 1 0.285698 0.214248 0.421189 55.845 -5.4718e-07 
101 1 0.321435 0.214293 0.379746 55.845 4.2376e-08 
110 1 0.285771 0.142896 0.421175 55.845 -5.95656e-07 
111 1 0.321528 0.142787 0.379578 55.845 5.24909e-07 
112 1 0.321443 0.178513 0.42129 55.845 -3.40153e-07 
113 1 0.357127 0.178579 0.379642 55.845 3.0097e-07 
114 1 0.357153 0.214244 0.421156 55.845 -3.45829e-07 
126 1 0.357128 0.142819 0.421253 55.845 -4.62528e-07 
201 1 0.285672 0.178604 0.295182 55.845 7.35892e-09 
202 1 0.285783 0.214193 0.33732 55.845 -1.07936e-07 
203 1 0.321431 0.214289 0.29523 55.845 1.30897e-07 
212 1 0.285743 0.142863 0.337359 55.845 3.45158e-08 
213 1 0.321428 0.142883 0.295231 55.845 5.37837e-08 
214 1 0.321433 0.178597 0.337348 55.845 -4.91623e-08 
215 1 0.357077 0.178504 0.295276 55.845 -6.99241e-08 