ITEM: TIMESTEP
8200
ITEM: NUMBER OF ATOMS
5880
ITEM: BOX BOUNDS pp pp ff
-27.8746 27.8746
-27.8746 27.8746
0 34.092
ITEM: ATOMS id type xs ys zs mass q 
259 1 0.000102842 0.107193 0.21147 55.845 -4.90763e-08 
267 1 8.10177e-05 0.0356948 0.211546 55.845 5.10021e-08 
269 1 0.0358785 0.0712866 0.211458 55.845 6.35347e-08 
271 1 0.0713908 0.107064 0.211532 55.845 -4.59457e-08 
279 1 0.0357451 7.94986e-05 0.211496 55.845 -1.29401e-07 
281 1 0.0714575 0.0356825 0.211369 55.845 6.81599e-08 
283 1 0.107208 0.0714834 0.211493 55.845 6.79837e-08 
293 1 0.107196 -4.41642e-06 0.211349 55.845 2.90471e-08 
361 1 8.01045e-05 0.107129 0.126458 55.845 -4.29489e-07 
369 1 4.05293e-05 0.0357934 0.126633 55.845 1.05305e-07 
370 1 0.000104804 0.0713605 0.168498 55.845 -1.45939e-07 
371 1 0.0357507 0.0715275 0.126531 55.845 -1.62779e-07 
372 1 0.0358304 0.107199 0.168406 55.845 1.3591e-07 
373 1 0.0715043 0.107178 0.126466 55.845 1.4648e-07 
380 1 -6.52939e-05 4.70285e-06 0.168373 55.845 -1.61861e-07 
381 1 0.0357757 -7.86749e-05 0.126464 55.845 -1.1366e-07 
382 1 0.0358386 0.0357453 0.168301 55.845 3.18575e-08 
383 1 0.071505 0.0357532 0.126354 55.845 -8.17462e-08 
384 1 0.0714956 0.0714031 0.168359 55.845 2.95739e-07 
385 1 0.107141 0.0715073 0.126423 55.845 4.48869e-08 
386 1 0.107249 0.107163 0.16842 55.845 -1.87714e-08 
394 1 0.0714462 -1.69101e-05 0.168325 55.845 -1.15289e-08 
395 1 0.107159 -6.72767e-06 0.126424 55.845 -3.49427e-07 
396 1 0.10713 0.0357452 0.168384 55.845 4.18631e-08 
463 1 0 0.107143 0.0416667 55.845 -2.75507e-07 
471 1 0 0.0357143 0.0416667 55.845 -1.96306e-07 
472 1 -2.17675e-05 0.0713573 0.0844428 55.845 3.87579e-07 
473 1 0.0357143 0.0714286 0.0416667 55.845 -1.52774e-07 
474 1 0.0357718 0.107205 0.0843947 55.845 4.159e-07 
475 1 0.0714286 0.107143 0.0416667 55.845 -1.46237e-07 
482 1 6.96839e-05 -3.31153e-06 0.0843649 55.845 2.6276e-07 
483 1 0.0357143 0 0.0416667 55.845 -3.23307e-07 
484 1 0.0357409 0.0357087 0.0843492 55.845 1.78998e-07 
485 1 0.0714286 0.0357143 0.0416667 55.845 -2.34594e-07 
486 1 0.0714391 0.0713996 0.0845045 55.845 6.23359e-07 
487 1 0.107143 0.0714286 0.0416667 55.845 1.19229e-07 
488 1 0.107119 0.107217 0.0843091 55.845 4.1682e-07 
496 1 0.0714786 4.54057e-05 0.084245 55.845 1.09909e-07 
497 1 0.107143 0 0.0416667 55.845 -3.07096e-07 
498 1 0.107135 0.0356869 0.0843576 55.845 1.96282e-07 
567 1 0 0.0714286 0 55.845 4.4269e-08 
568 1 0.0357143 0.107143 0 55.845 -8.99712e-09 
572 1 0 0 0 55.845 -3.31216e-07 
573 1 0.0357143 0.0357143 0 55.845 -1.52091e-07 
574 1 0.0714286 0.0714286 0 55.845 6.6127e-08 
575 1 0.107143 0.107143 0 55.845 1.78389e-08 
579 1 0.0714286 0 0 55.845 -2.09995e-07 
580 1 0.107143 0.0357143 0 55.845 7.23942e-08 
285 1 0.142913 0.107118 0.211657 55.845 -1.57041e-07 
295 1 0.142926 0.0356932 0.211473 55.845 -4.64124e-08 
297 1 0.178569 0.0714488 0.211568 55.845 -1.77596e-08 
299 1 0.214252 0.107243 0.211362 55.845 -1.62129e-07 
307 1 0.178536 8.48996e-05 0.211444 55.845 1.5368e-07 
309 1 0.214273 0.035597 0.211544 55.845 -4.63942e-08 
311 1 0.250028 0.0714802 0.211504 55.845 1.6692e-07 
387 1 0.14288 0.107101 0.126609 55.845 -1.51412e-07 
397 1 0.142799 0.0357075 0.126486 55.845 -1.97587e-07 
398 1 0.142964 0.0715776 0.168388 55.845 -1.4358e-07 
399 1 0.178614 0.0713607 0.126474 55.845 -4.1817e-07 
400 1 0.178648 0.107262 0.168249 55.845 -1.16645e-07 
401 1 0.214346 0.107214 0.126634 55.845 -7.14799e-08 
408 1 0.142883 2.80826e-05 0.168455 55.845 -1.00735e-08 
409 1 0.178525 1.15802e-05 0.126413 55.845 -3.77435e-07 
410 1 0.178673 0.035662 0.168546 55.845 9.30643e-08 
411 1 0.214355 0.0357365 0.126427 55.845 -2.21766e-07 
412 1 0.214399 0.0714123 0.16844 55.845 1.72363e-07 
413 1 0.250066 0.0713689 0.12653 55.845 3.48357e-08 
414 1 0.250031 0.10702 0.168306 55.845 3.03377e-07 
424 1 0.214428 -3.9726e-06 0.168324 55.845 -9.09176e-09 
426 1 0.249967 0.0357681 0.168504 55.845 5.08178e-08 
489 1 0.142857 0.107143 0.0416667 55.845 -2.55837e-07 
499 1 0.142857 0.0357143 0.0416667 55.845 -3.25987e-07 
500 1 0.142847 0.0714612 0.0844225 55.845 3.25036e-07 
501 1 0.178571 0.0714286 0.0416667 55.845 -4.35844e-07 
502 1 0.178616 0.107079 0.0844789 55.845 4.70382e-08 
503 1 0.214286 0.107143 0.0416667 55.845 -4.28271e-07 
510 1 0.14289 -9.50714e-05 0.0844115 55.845 1.92586e-07 
511 1 0.178571 0 0.0416667 55.845 -3.32329e-07 
512 1 0.178571 0.0356906 0.0843952 55.845 1.17939e-07 
513 1 0.214286 0.0357143 0.0416667 55.845 -4.45114e-07 
514 1 0.214337 0.07147 0.0844867 55.845 2.92171e-07 
515 1 0.25 0.0714286 0.0416667 55.845 -2.48216e-07 
516 1 0.249957 0.10715 0.0842955 55.845 1.10055e-07 
526 1 0.21418 -3.90654e-07 0.0843293 55.845 1.50227e-07 
528 1 0.249951 0.0357652 0.0843836 55.845 1.95046e-07 
581 1 0.142857 0.0714286 0 55.845 -9.57726e-09 
582 1 0.178571 0.107143 0 55.845 -1.80812e-07 
586 1 0.142857 0 0 55.845 -1.38917e-08 
587 1 0.178571 0.0357143 0 55.845 2.76822e-08 
588 1 0.214286 0.0714286 0 55.845 -2.14756e-07 
589 1 0.25 0.107143 0 55.845 -9.56758e-08 
594 1 0.214286 0 0 55.845 1.39901e-07 
595 1 0.25 0.0357143 0 55.845 2.05631e-07 
313 1 0.285831 0.107163 0.211476 55.845 -3.33649e-07 
323 1 0.250074 0.000100895 0.211556 55.845 -6.69862e-08 
325 1 0.285716 0.0357165 0.211575 55.845 2.45638e-07 
327 1 0.321289 0.0714972 0.211585 55.845 2.54219e-07 
329 1 0.357137 0.10721 0.211555 55.845 -2.03565e-07 
337 1 0.321405 -0.000120789 0.211497 55.845 6.1706e-08 
339 1 0.35697 0.0357513 0.211575 55.845 1.81958e-07 
415 1 0.285693 0.106996 0.126336 55.845 -2.09577e-07 
425 1 0.249999 4.78435e-05 0.126508 55.845 -6.14349e-07 
427 1 0.285618 0.0357558 0.12665 55.845 -3.39429e-08 
428 1 0.285727 0.071418 0.16855 55.845 1.60966e-07 
429 1 0.321403 0.0714687 0.126569 55.845 -4.13404e-07 
430 1 0.321365 0.107225 0.168489 55.845 3.5691e-08 
431 1 0.357109 0.107172 0.126344 55.845 -1.85677e-07 
439 1 0.321324 6.6815e-05 0.126585 55.845 -2.92068e-07 
440 1 0.321364 0.0357676 0.168458 55.845 3.65599e-07 
441 1 0.357079 0.035662 0.126557 55.845 -1.67208e-07 
442 1 0.357176 0.0714661 0.168535 55.845 5.77501e-08 
517 1 0.285714 0.107143 0.0416667 55.845 -3.25687e-07 
527 1 0.25 0 0.0416667 55.845 -3.53944e-07 
529 1 0.285714 0.0357143 0.0416667 55.845 -4.29371e-07 
530 1 0.285752 0.0714026 0.0844948 55.845 3.50544e-07 
531 1 0.321429 0.0714286 0.0416667 55.845 -4.37544e-07 
532 1 0.321446 0.107206 0.0843337 55.845 3.28567e-08 
533 1 0.357143 0.107143 0.0416667 55.845 -3.29601e-07 
603 1 0.357143 0.0714286 0 55.845 -1.17787e-08 
541 1 0.321429 0 0.0416667 55.845 -2.6882e-07 
542 1 0.321398 0.035652 0.0843554 55.845 3.52893e-07 
543 1 0.357143 0.0357143 0.0416667 55.845 -4.96589e-07 
544 1 0.35705 0.0713914 0.0843053 55.845 3.54562e-07 
602 1 0.321429 0.0357143 0 55.845 9.33954e-08 
596 1 0.285714 0.0714286 0 55.845 6.80685e-08 
597 1 0.321429 0.107143 0 55.845 1.68295e-07 
612 1 0.464286 0.0357143 0 55.845 4.46923e-08 
611 1 0.428571 0 0 55.845 2.91082e-08 
610 1 0.464286 0.107143 0 55.845 -6.93418e-08 
609 1 0.428571 0.0714286 0 55.845 -3.69099e-08 
608 1 0.392857 0.0357143 0 55.845 3.81413e-08 
341 1 0.392833 0.0714468 0.211492 55.845 1.7313e-07 
343 1 0.428476 0.107103 0.211261 55.845 -1.78783e-07 
348 1 0.392808 1.91533e-05 0.211228 55.845 4.55937e-08 
350 1 0.42858 0.0356262 0.211494 55.845 -6.58748e-08 
352 1 0.464216 0.0715186 0.211565 55.845 -2.05341e-07 
355 1 0.464258 1.67453e-05 0.211555 55.845 -1.59369e-07 
443 1 0.392844 0.0713598 0.1265 55.845 -2.31635e-07 
444 1 0.392764 0.107122 0.168378 55.845 1.57928e-07 
445 1 0.428612 0.107051 0.126265 55.845 4.4205e-08 
604 1 0.392857 0.107143 0 55.845 2.07474e-08 
450 1 0.392788 -3.07435e-05 0.126506 55.845 -2.9758e-07 
451 1 0.392778 0.0356015 0.168552 55.845 1.39983e-07 
452 1 0.428465 0.0355467 0.126513 55.845 -2.5859e-07 
453 1 0.428581 0.0714486 0.168381 55.845 1.83391e-07 
454 1 0.464271 0.07139 0.126584 55.845 -4.78654e-07 
455 1 0.464274 0.10712 0.168363 55.845 -5.29102e-08 
456 1 0.42851 -4.4295e-05 0.16827 55.845 1.9424e-07 
457 1 0.46437 -9.55509e-05 0.126471 55.845 -2.98e-07 
458 1 0.464313 0.0357342 0.168482 55.845 3.39447e-07 
545 1 0.392857 0.0714286 0.0416667 55.845 -3.1885e-07 
546 1 0.392813 0.107183 0.0844916 55.845 4.5733e-07 
547 1 0.428571 0.107143 0.0416667 55.845 -3.15454e-07 
552 1 0.392857 0 0.0416667 55.845 -1.47556e-07 
553 1 0.392824 0.0357808 0.0844124 55.845 3.58861e-07 
554 1 0.428571 0.0357143 0.0416667 55.845 -2.66664e-07 
555 1 0.428549 0.0713635 0.0844686 55.845 5.69684e-07 
556 1 0.464286 0.0714286 0.0416667 55.845 -3.24277e-07 
557 1 0.464264 0.107145 0.0844536 55.845 3.74506e-07 
558 1 0.428537 -8.54252e-05 0.0843979 55.845 4.94374e-07 
559 1 0.464286 0 0.0416667 55.845 -2.3173e-08 
560 1 0.464255 0.0357987 0.0845394 55.845 5.24087e-07 
255 1 5.50167e-05 0.178537 0.21156 55.845 8.26982e-08 
257 1 0.0357495 0.214379 0.211263 55.845 -5.45971e-08 
261 1 0.0357901 0.142898 0.211571 55.845 -1.61191e-07 
263 1 0.0714392 0.178593 0.211248 55.845 1.03996e-07 
265 1 0.107191 0.214265 0.211308 55.845 -1.44304e-07 
273 1 0.107263 0.142912 0.211414 55.845 6.36663e-08 
357 1 1.89526e-05 0.178538 0.126564 55.845 -5.44902e-07 
358 1 2.4463e-06 0.214251 0.168222 55.845 2.57781e-07 
359 1 0.0357457 0.214185 0.126287 55.845 -2.70959e-07 
360 1 0.0357945 0.249985 0.168389 55.845 -1.75644e-07 
362 1 7.31992e-06 0.142852 0.168568 55.845 1.87224e-07 
363 1 0.0357733 0.142855 0.126737 55.845 -2.7075e-07 
364 1 0.0357457 0.178561 0.168299 55.845 6.21603e-07 
365 1 0.0712918 0.178675 0.126467 55.845 6.77532e-08 
366 1 0.0714376 0.214326 0.16831 55.845 1.20307e-07 
367 1 0.107112 0.214209 0.12635 55.845 -2.34902e-08 
368 1 0.107114 0.250006 0.168425 55.845 -7.94288e-08 
374 1 0.071418 0.142852 0.168465 55.845 2.2828e-07 
375 1 0.107174 0.142923 0.126479 55.845 7.81239e-08 
376 1 0.107142 0.178538 0.16833 55.845 -3.4649e-08 
459 1 0 0.178571 0.0416667 55.845 -3.32137e-07 
460 1 -0.000164859 0.214212 0.0843097 55.845 4.7145e-07 
461 1 0.0357143 0.214286 0.0416667 55.845 -2.27511e-07 
462 1 0.0356685 0.250077 0.0843688 55.845 7.31179e-08 
464 1 3.81183e-05 0.142837 0.0845693 55.845 5.09641e-07 
465 1 0.0357143 0.142857 0.0416667 55.845 -5.10504e-07 
466 1 0.0356837 0.178515 0.0842673 55.845 6.4435e-07 
467 1 0.0714286 0.178571 0.0416667 55.845 -4.81411e-07 
468 1 0.0714737 0.214235 0.0840822 55.845 3.1604e-07 
469 1 0.107143 0.214286 0.0416667 55.845 -3.07828e-07 
470 1 0.107119 0.250042 0.0844576 55.845 7.72137e-08 
476 1 0.0713294 0.142962 0.0845663 55.845 5.19e-07 
477 1 0.107143 0.142857 0.0416667 55.845 -3.65879e-07 
478 1 0.10714 0.178495 0.0842753 55.845 2.75578e-07 
561 1 0 0.214286 0 55.845 4.12726e-07 
562 1 0.0357143 0.25 0 55.845 1.31546e-07 
563 1 0 0.142857 0 55.845 1.69426e-07 
564 1 0.0357143 0.178571 0 55.845 -1.99137e-08 
565 1 0.0714286 0.214286 0 55.845 -2.67744e-07 
566 1 0.107143 0.25 0 55.845 -3.24291e-07 
569 1 0.0714286 0.142857 0 55.845 -4.21374e-07 
570 1 0.107143 0.178571 0 55.845 -4.62602e-07 
275 1 0.1429 0.17857 0.211618 55.845 -2.48836e-07 
277 1 0.178583 0.214147 0.211355 55.845 -7.47095e-07 
287 1 0.178559 0.142909 0.211668 55.845 -1.509e-07 
289 1 0.214317 0.178668 0.211614 55.845 -2.74235e-07 
291 1 0.250033 0.214226 0.21155 55.845 -1.61277e-07 
301 1 0.250072 0.142895 0.211418 55.845 -2.70617e-07 
377 1 0.142983 0.17862 0.126541 55.845 -9.50559e-08 
378 1 0.142799 0.214237 0.168423 55.845 -8.66045e-08 
379 1 0.178599 0.214215 0.126582 55.845 -1.03877e-07 
388 1 0.14299 0.142955 0.168413 55.845 -3.8117e-07 
389 1 0.178659 0.142995 0.126507 55.845 -1.95543e-07 
390 1 0.178645 0.178559 0.168437 55.845 1.54694e-07 
391 1 0.214298 0.178591 0.126586 55.845 -5.10776e-09 
392 1 0.214305 0.214256 0.168507 55.845 5.19305e-07 
393 1 0.249996 0.214242 0.12658 55.845 5.24847e-08 
402 1 0.214254 0.14287 0.168663 55.845 2.4446e-07 
403 1 0.249982 0.14284 0.126556 55.845 -2.93165e-08 
404 1 0.250021 0.178517 0.168484 55.845 5.55399e-07 
479 1 0.142857 0.178571 0.0416667 55.845 -2.10889e-07 
480 1 0.142815 0.214243 0.0843444 55.845 4.51917e-07 
481 1 0.178571 0.214286 0.0416667 55.845 -5.80331e-08 
490 1 0.14297 0.142975 0.0844409 55.845 2.32068e-07 
491 1 0.178571 0.142857 0.0416667 55.845 -3.35894e-07 
492 1 0.178728 0.178564 0.0844003 55.845 5.9051e-07 
493 1 0.214286 0.178571 0.0416667 55.845 -3.19803e-07 
494 1 0.21424 0.21432 0.0846092 55.845 7.29665e-07 
495 1 0.25 0.214286 0.0416667 55.845 -5.85554e-07 
504 1 0.214286 0.142834 0.0844837 55.845 3.81627e-07 
505 1 0.25 0.142857 0.0416667 55.845 -3.70947e-07 
506 1 0.25002 0.178593 0.0843315 55.845 3.70437e-07 
571 1 0.142857 0.214286 0 55.845 -1.7711e-07 
576 1 0.142857 0.142857 0 55.845 -2.39363e-07 
577 1 0.178571 0.178571 0 55.845 -5.49298e-08 
578 1 0.214286 0.214286 0 55.845 -3.67837e-07 
583 1 0.214286 0.142857 0 55.845 -3.07583e-07 
584 1 0.25 0.178571 0 55.845 -3.61833e-07 
303 1 0.285734 0.178477 0.211461 55.845 2.1811e-08 
305 1 0.321388 0.214363 0.211476 55.845 2.81874e-07 
315 1 0.321486 0.142892 0.211406 55.845 -1.74988e-07 
317 1 0.357178 0.178546 0.211237 55.845 2.56417e-07 
405 1 0.28564 0.178547 0.126458 55.845 -6.5742e-08 
406 1 0.285713 0.2142 0.168498 55.845 3.25663e-07 
407 1 0.321434 0.214301 0.126566 55.845 2.4062e-08 
416 1 0.285713 0.142769 0.168362 55.845 1.07833e-07 
417 1 0.321377 0.142912 0.126514 55.845 -4.18395e-07 
418 1 0.321313 0.178608 0.168396 55.845 2.40514e-07 
419 1 0.357155 0.178577 0.126385 55.845 -1.7467e-07 
420 1 0.357175 0.214325 0.168374 55.845 -1.88241e-07 
432 1 0.357112 0.142801 0.168353 55.845 -3.13811e-08 
507 1 0.285714 0.178571 0.0416667 55.845 -3.23879e-07 
508 1 0.28569 0.214215 0.0844425 55.845 4.63403e-07 
509 1 0.321429 0.214286 0.0416667 55.845 -2.27062e-08 
518 1 0.28565 0.142824 0.0843287 55.845 1.86095e-07 
519 1 0.321429 0.142857 0.0416667 55.845 -1.16493e-07 
520 1 0.321434 0.17865 0.0845314 55.845 2.7347e-07 
521 1 0.357143 0.178571 0.0416667 55.845 -2.16674e-07 
522 1 0.357226 0.214331 0.0844468 55.845 1.7241e-07 
534 1 0.357144 0.142874 0.0843194 55.845 3.01737e-07 
585 1 0.285714 0.214286 0 55.845 -1.93614e-07 
590 1 0.285714 0.142857 0 55.845 -3.17436e-08 
591 1 0.321429 0.178571 0 55.845 3.02915e-07 
592 1 0.357143 0.214286 0 55.845 2.67252e-07 
598 1 0.357143 0.142857 0 55.845 1.95171e-07 
319 1 0.392843 0.214229 0.211491 55.845 2.2242e-07 
321 1 0.428543 0.249993 0.211466 55.845 1.14393e-07 
331 1 0.392854 0.142943 0.211135 55.845 1.97163e-07 
333 1 0.428589 0.178547 0.211394 55.845 2.74543e-07 
335 1 0.46428 0.214288 0.211461 55.845 2.86242e-07 
345 1 0.464213 0.142877 0.211484 55.845 1.63898e-07 
606 1 0.464286 0.178571 0 55.845 1.6584e-07 
421 1 0.392874 0.214383 0.126537 55.845 -4.06537e-07 
422 1 0.39293 0.250007 0.168661 55.845 -1.57092e-07 
423 1 0.428614 0.24991 0.126485 55.845 -2.62891e-07 
433 1 0.392896 0.142874 0.126504 55.845 -1.17878e-07 
434 1 0.392827 0.178576 0.168358 55.845 -1.53405e-07 
435 1 0.428602 0.178532 0.126405 55.845 -4.13582e-07 
436 1 0.428638 0.214201 0.16848 55.845 -2.55563e-07 
437 1 0.464361 0.214328 0.126512 55.845 -4.6342e-07 
605 1 0.428571 0.142857 0 55.845 -1.23329e-07 
446 1 0.428617 0.142778 0.168325 55.845 9.99832e-08 
447 1 0.4643 0.142807 0.126251 55.845 -5.2472e-07 
448 1 0.464342 0.178563 0.168338 55.845 -1.04301e-07 
523 1 0.392857 0.214286 0.0416667 55.845 -4.60855e-07 
524 1 0.392836 0.24998 0.0843428 55.845 1.11094e-07 
525 1 0.428571 0.25 0.0416667 55.845 -2.9239e-07 
535 1 0.392857 0.142857 0.0416667 55.845 -2.65097e-07 
536 1 0.392909 0.178604 0.0844963 55.845 4.16506e-08 
537 1 0.428571 0.178571 0.0416667 55.845 -6.08258e-07 
538 1 0.428606 0.214269 0.0843493 55.845 -1.07681e-07 
539 1 0.464286 0.214286 0.0416667 55.845 -2.65017e-07 
548 1 0.428582 0.142855 0.0844444 55.845 4.0846e-07 
549 1 0.464286 0.142857 0.0416667 55.845 -3.58755e-07 
550 1 0.46431 0.178703 0.084329 55.845 2.69295e-07 
593 1 0.392857 0.25 0 55.845 6.0445e-08 
599 1 0.392857 0.178571 0 55.845 -4.7888e-08 
600 1 0.428571 0.214286 0 55.845 -2.61055e-08 
3 1 2.29322e-07 0.107194 0.464114 55.845 3.15624e-07 
7 1 -0.000122094 0.0358232 0.46423 55.845 -1.94964e-07 
8 1 0.0356766 0.071414 0.463986 55.845 1.064e-07 
9 1 0.0714668 0.107189 0.46432 55.845 6.14145e-07 
13 1 0.0356486 3.93498e-05 0.464115 55.845 -2.11054e-07 
14 1 0.0713305 0.0356022 0.464094 55.845 3.62218e-08 
15 1 0.107095 0.07142 0.464098 55.845 2.79256e-07 
20 1 0.107081 -5.50116e-05 0.464195 55.845 3.09288e-07 
55 1 9.76325e-06 0.107045 0.37918 55.845 4.96786e-07 
63 1 -0.000157512 0.0357314 0.379295 55.845 2.13721e-07 
64 1 -0.000129201 0.0714258 0.422087 55.845 -3.08501e-07 
65 1 0.0357587 0.0715214 0.379157 55.845 4.169e-07 
66 1 0.0357741 0.107135 0.421986 55.845 -3.71329e-07 
67 1 0.0715858 0.107195 0.379266 55.845 7.03329e-07 
74 1 -5.61811e-05 -9.55163e-05 0.422088 55.845 -5.46133e-07 
75 1 0.035761 0.000108577 0.379193 55.845 6.85638e-08 
76 1 0.0356237 0.0357301 0.421937 55.845 -4.08746e-07 
77 1 0.0713036 0.0357244 0.379204 55.845 -3.84149e-09 
78 1 0.071489 0.0714309 0.422013 55.845 -2.63647e-07 
79 1 0.10714 0.071417 0.379056 55.845 1.96351e-07 
80 1 0.107231 0.107159 0.421814 55.845 -5.59963e-07 
88 1 0.0714035 -5.91496e-05 0.421893 55.845 -2.18956e-07 
89 1 0.107056 -7.78295e-05 0.37906 55.845 5.76351e-08 
90 1 0.107109 0.0356416 0.421938 55.845 -3.97833e-07 
157 1 -4.22819e-05 0.107146 0.295496 55.845 -4.92097e-07 
165 1 -0.000142934 0.0357651 0.295483 55.845 -7.319e-07 
166 1 -8.36646e-05 0.0713338 0.336741 55.845 4.20751e-07 
167 1 0.0357074 0.0714079 0.295679 55.845 -4.34069e-07 
168 1 0.0356555 0.107137 0.336693 55.845 8.53636e-08 
169 1 0.0714328 0.107092 0.295711 55.845 -5.37137e-07 
176 1 -8.6932e-05 5.20146e-05 0.336646 55.845 -1.40109e-07 
177 1 0.0356176 0.000188315 0.295302 55.845 -8.17313e-07 
178 1 0.0355931 0.0357897 0.336731 55.845 2.30448e-07 
179 1 0.0714919 0.0357778 0.295569 55.845 -6.2341e-07 
180 1 0.0714679 0.0715194 0.33679 55.845 8.5343e-08 
181 1 0.107127 0.0715082 0.29558 55.845 -7.74333e-07 
182 1 0.107154 0.107056 0.336625 55.845 -1.50724e-07 
190 1 0.0713553 9.35995e-05 0.336647 55.845 1.97375e-07 
191 1 0.107124 -2.26432e-06 0.295552 55.845 -7.48296e-07 
192 1 0.107088 0.0356601 0.336704 55.845 -1.27444e-07 
268 1 6.96064e-05 0.0714518 0.253975 55.845 3.4331e-07 
270 1 0.0357805 0.107135 0.254163 55.845 4.08964e-07 
278 1 4.33619e-05 -6.79632e-05 0.253906 55.845 -5.29469e-08 
280 1 0.0357471 0.0357783 0.253929 55.845 5.62529e-07 
282 1 0.0714724 0.0714183 0.253952 55.845 6.06904e-07 
284 1 0.107151 0.107108 0.254038 55.845 1.72241e-07 
292 1 0.0714669 7.12382e-05 0.253969 55.845 5.87338e-07 
294 1 0.107201 0.0358119 0.253848 55.845 4.92476e-07 
16 1 0.142974 0.107129 0.464244 55.845 -2.34016e-08 
21 1 0.142853 0.0358114 0.464244 55.845 3.1885e-07 
22 1 0.178519 0.071491 0.464177 55.845 1.13075e-07 
23 1 0.214335 0.107148 0.464149 55.845 -8.16359e-08 
27 1 0.178646 1.94852e-05 0.464011 55.845 5.00012e-07 
28 1 0.214333 0.0356887 0.464226 55.845 4.82864e-07 
29 1 0.250157 0.0713644 0.464175 55.845 1.7515e-07 
81 1 0.142896 0.10701 0.378974 55.845 3.58486e-07 
91 1 0.1428 0.035794 0.379056 55.845 1.30078e-07 
92 1 0.14293 0.0714598 0.421832 55.845 -1.50618e-07 
93 1 0.17861 0.0713709 0.378857 55.845 3.31315e-07 
94 1 0.178592 0.107152 0.42197 55.845 1.09231e-07 
95 1 0.214365 0.107078 0.379053 55.845 2.20629e-07 
102 1 0.142779 0.000109993 0.42201 55.845 -3.05674e-07 
103 1 0.178561 -2.66218e-05 0.379156 55.845 4.03507e-07 
104 1 0.178538 0.035745 0.421881 55.845 -1.80299e-07 
105 1 0.214301 0.0357107 0.379193 55.845 4.35936e-07 
106 1 0.214326 0.0713492 0.421823 55.845 2.2227e-07 
107 1 0.250065 0.0713193 0.379011 55.845 3.71e-07 
108 1 0.250093 0.107128 0.421836 55.845 9.7173e-08 
118 1 0.214244 -2.97994e-05 0.421856 55.845 -3.41017e-07 
120 1 0.250082 0.0356636 0.421848 55.845 -1.9584e-07 
183 1 0.142798 0.107116 0.295443 55.845 -5.40022e-07 
193 1 0.14279 0.0356369 0.295433 55.845 -7.59275e-07 
194 1 0.142895 0.0713633 0.336414 55.845 -7.26136e-08 
195 1 0.178657 0.0713269 0.295396 55.845 -7.97581e-07 
196 1 0.178497 0.107008 0.336701 55.845 6.27389e-07 
197 1 0.214376 0.107221 0.295618 55.845 -9.98137e-07 
204 1 0.142867 3.2088e-05 0.336683 55.845 -2.10154e-07 
205 1 0.178693 -5.17734e-05 0.295502 55.845 -6.13002e-07 
206 1 0.178508 0.0356421 0.336613 55.845 5.17852e-08 
207 1 0.214246 0.0356927 0.295433 55.845 -7.7859e-07 
208 1 0.214263 0.0713706 0.336431 55.845 2.47191e-07 
209 1 0.250006 0.0715062 0.295535 55.845 -1.0338e-06 
210 1 0.25017 0.107085 0.336736 55.845 2.26473e-07 
220 1 0.214402 -3.35771e-05 0.336768 55.845 4.39422e-08 
222 1 0.249974 0.0357028 0.336554 55.845 2.43071e-08 
296 1 0.14281 0.0714776 0.253907 55.845 2.61624e-07 
298 1 0.178631 0.107179 0.253914 55.845 3.74838e-07 
306 1 0.142831 3.03877e-05 0.253811 55.845 4.62445e-07 
308 1 0.178575 0.0357168 0.254006 55.845 4.69401e-07 
310 1 0.214341 0.0714705 0.253806 55.845 3.15133e-07 
312 1 0.250032 0.107177 0.253902 55.845 2.39362e-07 
322 1 0.214335 -2.29121e-05 0.253889 55.845 5.40508e-07 
324 1 0.250024 0.0357923 0.253923 55.845 2.36348e-07 
30 1 0.285792 0.107084 0.464246 55.845 1.00251e-07 
35 1 0.249994 -0.00010843 0.464197 55.845 4.93563e-07 
36 1 0.285883 0.0356629 0.464296 55.845 4.36653e-07 
37 1 0.321564 0.0713812 0.464307 55.845 -9.66154e-08 
38 1 0.357113 0.1071 0.46435 55.845 2.3324e-07 
42 1 0.321578 -6.94673e-05 0.464298 55.845 5.21523e-07 
43 1 0.357111 0.0356433 0.464259 55.845 1.54233e-08 
109 1 0.28589 0.107172 0.37922 55.845 4.46911e-07 
119 1 0.250047 -0.000128696 0.379195 55.845 4.44667e-07 
121 1 0.285786 0.0356773 0.379088 55.845 4.62311e-07 
122 1 0.285833 0.0713991 0.421879 55.845 4.8058e-08 
123 1 0.321547 0.0715225 0.378982 55.845 6.21501e-07 
124 1 0.321519 0.107146 0.422079 55.845 6.80578e-08 
125 1 0.357128 0.107177 0.379292 55.845 2.09205e-07 
133 1 0.321548 -9.90876e-05 0.379211 55.845 5.22087e-07 
134 1 0.321512 0.0356508 0.421695 55.845 -1.5739e-07 
135 1 0.357251 0.0357943 0.379173 55.845 3.26243e-07 
136 1 0.357278 0.0713827 0.421956 55.845 -1.13166e-07 
211 1 0.285841 0.107182 0.295586 55.845 -1.02782e-06 
221 1 0.250088 -3.86702e-05 0.295634 55.845 -8.41826e-07 
223 1 0.285792 0.0358061 0.295507 55.845 -6.10736e-07 
224 1 0.285758 0.0714704 0.336852 55.845 3.15294e-07 
225 1 0.321459 0.0716181 0.295586 55.845 -5.53098e-07 
226 1 0.321459 0.107307 0.336807 55.845 3.81745e-07 
227 1 0.357197 0.107127 0.295591 55.845 -8.20541e-07 
235 1 0.321437 5.50617e-05 0.295487 55.845 -9.2846e-07 
236 1 0.321554 0.0356709 0.336723 55.845 3.16556e-07 
237 1 0.357173 0.0357087 0.295635 55.845 -3.56369e-07 
238 1 0.357189 0.0714718 0.33672 55.845 1.04389e-07 
326 1 0.285692 0.0715046 0.254084 55.845 3.97096e-07 
328 1 0.321445 0.107268 0.254045 55.845 4.4414e-07 
338 1 0.32143 0.0357798 0.25402 55.845 5.26377e-07 
340 1 0.35715 0.0714565 0.253912 55.845 2.45988e-07 
44 1 0.392933 0.0714156 0.464306 55.845 5.31814e-08 
45 1 0.428659 0.107147 0.464335 55.845 5.65887e-07 
47 1 0.392994 -3.09715e-05 0.464273 55.845 1.90388e-07 
48 1 0.428697 0.0356463 0.464265 55.845 2.75753e-07 
49 1 0.464379 0.0714556 0.464087 55.845 3.06871e-07 
50 1 0.464375 -6.38041e-05 0.464276 55.845 -4.24202e-08 
137 1 0.392872 0.0713874 0.379203 55.845 1.33577e-07 
138 1 0.392897 0.107173 0.422153 55.845 -7.62186e-08 
139 1 0.428611 0.107063 0.379229 55.845 4.41911e-08 
144 1 0.392795 -0.000129904 0.379182 55.845 5.56953e-07 
145 1 0.392794 0.0357534 0.422013 55.845 -2.01561e-07 
146 1 0.42855 0.0356858 0.379203 55.845 1.70263e-07 
147 1 0.428662 0.0714576 0.422002 55.845 -2.39904e-07 
148 1 0.464257 0.0713527 0.379086 55.845 3.27469e-07 
149 1 0.464325 0.107103 0.421875 55.845 -4.96193e-07 
150 1 0.42862 -2.52091e-05 0.421969 55.845 -2.31993e-07 
151 1 0.464301 8.09945e-05 0.378991 55.845 2.42909e-07 
152 1 0.464259 0.0356688 0.421858 55.845 -4.05095e-07 
239 1 0.392911 0.0713912 0.295587 55.845 -9.04681e-07 
240 1 0.393038 0.107146 0.33683 55.845 -2.18111e-07 
241 1 0.428563 0.107106 0.295586 55.845 -1.01749e-06 
246 1 0.392877 -1.25312e-05 0.295575 55.845 -5.1268e-07 
247 1 0.392902 0.0356279 0.336697 55.845 6.81404e-08 
248 1 0.428427 0.0355815 0.295261 55.845 -3.63826e-07 
249 1 0.428577 0.0713682 0.336489 55.845 3.14119e-08 
250 1 0.464267 0.0714749 0.295297 55.845 -7.81414e-07 
251 1 0.464275 0.107077 0.33668 55.845 1.06395e-07 
252 1 0.428589 -5.87097e-05 0.336487 55.845 5.07349e-07 
253 1 0.464208 4.27352e-05 0.295271 55.845 -6.79018e-07 
254 1 0.4642 0.0357263 0.336427 55.845 5.03875e-07 
342 1 0.392854 0.10725 0.253958 55.845 -1.60581e-08 
349 1 0.39277 0.03572 0.254 55.845 3.34918e-07 
351 1 0.428465 0.0713931 0.253798 55.845 4.92622e-07 
353 1 0.464317 0.107144 0.253858 55.845 5.06441e-07 
354 1 0.4285 -1.84445e-06 0.253673 55.845 6.33283e-07 
356 1 0.464239 0.0358361 0.253996 55.845 9.78346e-07 
1 1 -4.0663e-05 0.178657 0.464167 55.845 3.67042e-07 
2 1 0.0357686 0.214293 0.464118 55.845 4.66947e-07 
4 1 0.0356942 0.142845 0.464259 55.845 4.7253e-07 
5 1 0.0714709 0.178556 0.46411 55.845 7.319e-07 
6 1 0.107108 0.214441 0.464388 55.845 3.55094e-07 
10 1 0.107186 0.142898 0.464133 55.845 3.75042e-07 
51 1 3.16837e-05 0.178563 0.378909 55.845 9.81084e-08 
52 1 -2.35197e-06 0.214306 0.421878 55.845 1.96956e-10 
53 1 0.0357482 0.214313 0.37886 55.845 2.38669e-07 
54 1 0.0356817 0.249945 0.421915 55.845 -5.93716e-08 
56 1 0.000100663 0.142984 0.421743 55.845 -5.86246e-07 
57 1 0.035712 0.142862 0.379013 55.845 5.40103e-07 
58 1 0.0357218 0.178511 0.421756 55.845 -3.89563e-07 
59 1 0.071408 0.178671 0.378999 55.845 6.98848e-07 
60 1 0.0715097 0.214359 0.421829 55.845 -1.38787e-08 
61 1 0.107237 0.214248 0.379369 55.845 7.02268e-07 
62 1 0.107202 0.250123 0.421959 55.845 -1.2298e-07 
68 1 0.0713869 0.142951 0.421953 55.845 -5.41558e-07 
69 1 0.107189 0.142911 0.379031 55.845 6.86686e-07 
70 1 0.107049 0.178557 0.42195 55.845 -6.2057e-07 
153 1 -7.00939e-06 0.178669 0.29543 55.845 -7.19674e-07 
154 1 1.15575e-07 0.214356 0.33677 55.845 3.66833e-07 
155 1 0.0356572 0.214399 0.295402 55.845 -8.56208e-07 
156 1 0.0356527 0.250084 0.336631 55.845 1.3167e-07 
158 1 -6.24753e-05 0.14281 0.336622 55.845 -2.26775e-07 
159 1 0.035654 0.142908 0.295478 55.845 -7.24893e-07 
160 1 0.0357028 0.178567 0.336525 55.845 -6.25554e-08 
161 1 0.0714113 0.178627 0.29567 55.845 -5.25078e-07 
162 1 0.0715171 0.214343 0.336496 55.845 1.10826e-07 
163 1 0.107172 0.214422 0.295528 55.845 -4.58424e-07 
164 1 0.107207 0.250062 0.33684 55.845 2.66844e-07 
170 1 0.071419 0.142921 0.336671 55.845 -3.56963e-07 
171 1 0.107194 0.142839 0.295556 55.845 -4.45023e-07 
172 1 0.107137 0.17873 0.336713 55.845 1.0175e-07 
256 1 -3.71992e-05 0.214322 0.25383 55.845 9.26069e-07 
258 1 0.0356683 0.250016 0.25398 55.845 3.73245e-07 
260 1 0.00010262 0.142939 0.254021 55.845 5.46423e-07 
262 1 0.0358424 0.178639 0.253785 55.845 6.3773e-07 
264 1 0.0714208 0.214299 0.253854 55.845 4.91971e-07 
266 1 0.107173 0.249973 0.253822 55.845 3.12692e-07 
272 1 0.0714135 0.142896 0.253963 55.845 2.87483e-07 
274 1 0.107007 0.178581 0.253874 55.845 2.02741e-07 
11 1 0.142857 0.178564 0.464143 55.845 1.64474e-08 
12 1 0.178596 0.214277 0.464265 55.845 -5.94996e-08 
17 1 0.178557 0.142842 0.464222 55.845 -2.17586e-07 
18 1 0.214332 0.1786 0.464275 55.845 1.3102e-07 
19 1 0.250039 0.214309 0.464441 55.845 1.49047e-07 
24 1 0.250049 0.142834 0.464253 55.845 -3.69916e-08 
71 1 0.142869 0.178527 0.379247 55.845 3.39121e-07 
72 1 0.142834 0.214287 0.422144 55.845 -4.04692e-07 
73 1 0.178545 0.214348 0.379436 55.845 3.23048e-07 
82 1 0.142861 0.142694 0.42206 55.845 -3.62783e-07 
83 1 0.17854 0.142797 0.379205 55.845 2.59993e-07 
84 1 0.178555 0.178584 0.42198 55.845 -3.02649e-07 
85 1 0.214248 0.178538 0.379304 55.845 3.79949e-07 
86 1 0.214311 0.214332 0.421889 55.845 -8.30963e-09 
87 1 0.250117 0.21435 0.379154 55.845 7.68133e-07 
96 1 0.214356 0.142767 0.422022 55.845 2.34781e-07 
97 1 0.250024 0.142874 0.379264 55.845 3.25495e-07 
98 1 0.250007 0.178613 0.421879 55.845 -2.06082e-07 
173 1 0.142818 0.178695 0.295537 55.845 -5.72678e-07 
174 1 0.14288 0.214318 0.336741 55.845 3.16993e-07 
175 1 0.178578 0.214306 0.295508 55.845 -1.01508e-06 
184 1 0.142842 0.142839 0.336579 55.845 2.56433e-07 
185 1 0.178577 0.142944 0.295679 55.845 -6.32023e-07 
186 1 0.178512 0.178592 0.336848 55.845 5.0124e-07 
187 1 0.214218 0.178516 0.295613 55.845 -1.05819e-06 
188 1 0.21422 0.214321 0.336838 55.845 2.71241e-07 
189 1 0.250001 0.214288 0.29565 55.845 -7.49365e-07 
198 1 0.214255 0.142888 0.33665 55.845 4.9515e-07 
199 1 0.249983 0.142892 0.295476 55.845 -1.27546e-06 
200 1 0.250068 0.178621 0.336856 55.845 1.70036e-07 
276 1 0.142865 0.214315 0.253847 55.845 3.22587e-07 
286 1 0.142838 0.142896 0.254159 55.845 2.02049e-07 
288 1 0.178561 0.178672 0.254042 55.845 2.8951e-07 
290 1 0.214228 0.214231 0.254267 55.845 4.09483e-07 
300 1 0.214289 0.142849 0.253909 55.845 3.90873e-07 
302 1 0.24997 0.17859 0.253926 55.845 3.03723e-07 
25 1 0.285844 0.178597 0.464223 55.845 2.12698e-07 
26 1 0.321376 0.214275 0.464316 55.845 6.31132e-08 
31 1 0.321395 0.142871 0.464357 55.845 2.42165e-07 
32 1 0.357141 0.178516 0.464105 55.845 3.40191e-07 
99 1 0.285694 0.178582 0.379142 55.845 5.90655e-07 
100 1 0.285757 0.214447 0.422074 55.845 -2.76821e-07 
101 1 0.321472 0.214299 0.379182 55.845 4.67375e-07 
110 1 0.285712 0.142927 0.422069 55.845 -7.25909e-09 
111 1 0.321381 0.142887 0.379324 55.845 5.88637e-07 
112 1 0.321447 0.178619 0.421921 55.845 -6.1438e-07 
113 1 0.357165 0.178543 0.379162 55.845 1.8228e-07 
114 1 0.357132 0.214416 0.421989 55.845 -4.80287e-07 
126 1 0.357243 0.142773 0.422019 55.845 2.90415e-08 
201 1 0.285669 0.178599 0.295522 55.845 -7.41056e-07 
202 1 0.2858 0.214285 0.33668 55.845 -3.36932e-08 
203 1 0.321558 0.214384 0.295639 55.845 -4.38557e-07 
212 1 0.285776 0.142863 0.336756 55.845 7.37495e-08 
213 1 0.321455 0.142955 0.295625 55.845 -8.63875e-07 
214 1 0.321471 0.178608 0.33647 55.845 4.16661e-08 
215 1 0.3572 0.178544 0.295646 55.845 -5.27252e-07 
216 1 0.357148 0.214255 0.336746 55.845 -1.59921e-07 