ITEM: TIMESTEP
400
ITEM: NUMBER OF ATOMS
5880
ITEM: BOX BOUNDS pp pp ff
-27.9053 27.9053
-27.9053 27.9053
0 34.092
ITEM: ATOMS id type xs ys zs mass q 
259 1 -2.45213e-07 0.107186 0.210031 55.845 1.52553e-07 
267 1 -5.15873e-05 0.0357183 0.209977 55.845 1.84481e-07 
269 1 0.035696 0.0714672 0.209895 55.845 3.63257e-07 
271 1 0.0714414 0.107181 0.209882 55.845 3.665e-07 
279 1 0.0357537 -1.56357e-05 0.21002 55.845 2.74679e-07 
281 1 0.0714436 0.0357435 0.209961 55.845 1.98487e-07 
283 1 0.107104 0.0714494 0.209976 55.845 3.59601e-07 
293 1 0.107119 1.15807e-05 0.209989 55.845 4.5616e-08 
361 1 -1.92013e-05 0.10716 0.126085 55.845 5.87961e-10 
369 1 -6.49198e-05 0.0357175 0.126105 55.845 7.08381e-08 
370 1 -6.4258e-05 0.0714855 0.167647 55.845 -1.65266e-07 
371 1 0.0357268 0.0714067 0.12612 55.845 6.49626e-08 
372 1 0.0356879 0.107158 0.167644 55.845 -3.21889e-07 
373 1 0.0714124 0.107232 0.126172 55.845 1.00307e-07 
380 1 -3.75668e-05 1.65989e-05 0.16792 55.845 -7.91871e-08 
381 1 0.0356834 -2.89102e-05 0.126139 55.845 1.31485e-07 
382 1 0.0357347 0.035742 0.16775 55.845 -8.27071e-08 
383 1 0.0714483 0.0357583 0.126021 55.845 1.00867e-07 
384 1 0.0714337 0.0714771 0.167747 55.845 -2.69111e-08 
385 1 0.107132 0.0714406 0.126187 55.845 7.68386e-08 
386 1 0.107233 0.107182 0.167724 55.845 -1.8944e-07 
394 1 0.0713936 5.15485e-05 0.167664 55.845 7.22662e-08 
395 1 0.107084 -2.01685e-05 0.126076 55.845 7.79515e-08 
396 1 0.107152 0.0357238 0.167699 55.845 -8.35973e-08 
463 1 0 0.107143 0.0416667 55.845 -1.27798e-07 
471 1 0 0.0357143 0.0416667 55.845 7.25061e-09 
472 1 -7.28912e-06 0.071421 0.0846673 55.845 2.81418e-07 
473 1 0.0357143 0.0714286 0.0416667 55.845 6.44113e-09 
474 1 0.0357635 0.107101 0.0846123 55.845 1.2302e-07 
475 1 0.0714286 0.107143 0.0416667 55.845 -1.32324e-07 
482 1 -2.98133e-05 6.30715e-05 0.0846308 55.845 -2.4839e-07 
483 1 0.0357143 0 0.0416667 55.845 -2.81326e-08 
484 1 0.0356731 0.0357348 0.0845956 55.845 2.51009e-07 
485 1 0.0714286 0.0357143 0.0416667 55.845 -1.15819e-07 
486 1 0.0715021 0.0714123 0.0847 55.845 2.74075e-07 
487 1 0.107143 0.0714286 0.0416667 55.845 -7.50718e-08 
488 1 0.107217 0.107154 0.0847364 55.845 1.47e-07 
496 1 0.0713529 5.42719e-06 0.0846301 55.845 1.61646e-07 
497 1 0.107143 0 0.0416667 55.845 -3.07881e-07 
498 1 0.107127 0.0357108 0.0845905 55.845 7.53283e-08 
567 1 0 0.0714286 0 55.845 -5.87861e-08 
568 1 0.0357143 0.107143 0 55.845 -1.3984e-07 
572 1 0 0 0 55.845 -3.84212e-08 
573 1 0.0357143 0.0357143 0 55.845 -3.0134e-08 
574 1 0.0714286 0.0714286 0 55.845 1.48179e-08 
575 1 0.107143 0.107143 0 55.845 8.22971e-08 
579 1 0.0714286 0 0 55.845 1.8428e-07 
580 1 0.107143 0.0357143 0 55.845 -2.96768e-08 
285 1 0.142879 0.107115 0.210035 55.845 3.63953e-07 
295 1 0.142852 0.0356377 0.21009 55.845 2.13888e-07 
297 1 0.178554 0.0715119 0.210022 55.845 3.99213e-07 
299 1 0.214284 0.107226 0.210051 55.845 2.18565e-07 
307 1 0.178641 -6.61996e-05 0.209947 55.845 1.75231e-07 
309 1 0.214304 0.035776 0.210083 55.845 3.65998e-07 
311 1 0.249922 0.0714631 0.210079 55.845 2.7808e-07 
387 1 0.142865 0.107139 0.126206 55.845 -2.90738e-08 
397 1 0.14285 0.035714 0.126121 55.845 -6.27818e-08 
398 1 0.142829 0.0714211 0.167777 55.845 -1.22227e-07 
399 1 0.178577 0.0714376 0.126072 55.845 1.08655e-07 
400 1 0.178623 0.107134 0.167663 55.845 -1.53311e-07 
401 1 0.214331 0.107133 0.126036 55.845 4.60802e-08 
408 1 0.142869 -8.09364e-05 0.167707 55.845 -1.61019e-07 
409 1 0.178648 -1.88472e-05 0.126178 55.845 8.14728e-08 
410 1 0.178599 0.0356957 0.167776 55.845 -1.88531e-08 
411 1 0.214312 0.0356922 0.126144 55.845 1.33912e-07 
412 1 0.214327 0.0714519 0.16764 55.845 -1.95582e-07 
413 1 0.250048 0.0713914 0.126087 55.845 9.95766e-08 
414 1 0.250025 0.107163 0.167798 55.845 -2.55346e-07 
424 1 0.21429 6.87008e-06 0.167794 55.845 -1.77917e-07 
426 1 0.249966 0.0357466 0.167853 55.845 -1.89424e-07 
489 1 0.142857 0.107143 0.0416667 55.845 -2.57376e-07 
499 1 0.142857 0.0357143 0.0416667 55.845 -1.00957e-07 
500 1 0.14291 0.0714463 0.0845899 55.845 2.18591e-07 
501 1 0.178571 0.0714286 0.0416667 55.845 -1.0767e-07 
502 1 0.178589 0.107143 0.0846 55.845 -2.38024e-09 
503 1 0.214286 0.107143 0.0416667 55.845 -3.4088e-07 
510 1 0.142878 -3.24956e-05 0.0847116 55.845 -6.42782e-08 
511 1 0.178571 0 0.0416667 55.845 -2.99093e-08 
512 1 0.178574 0.0357218 0.0845103 55.845 9.82471e-08 
513 1 0.214286 0.0357143 0.0416667 55.845 -1.67471e-07 
514 1 0.214263 0.0714134 0.0846558 55.845 1.0334e-07 
515 1 0.25 0.0714286 0.0416667 55.845 -1.7794e-07 
516 1 0.249978 0.107141 0.0846621 55.845 2.3346e-07 
526 1 0.21432 8.22545e-06 0.0845673 55.845 9.24621e-08 
528 1 0.250004 0.0357202 0.0845247 55.845 2.68979e-07 
581 1 0.142857 0.0714286 0 55.845 2.33347e-07 
582 1 0.178571 0.107143 0 55.845 -8.47169e-08 
586 1 0.142857 0 0 55.845 -5.83511e-08 
587 1 0.178571 0.0357143 0 55.845 2.45492e-07 
588 1 0.214286 0.0714286 0 55.845 -9.7858e-08 
589 1 0.25 0.107143 0 55.845 -9.34655e-09 
594 1 0.214286 0 0 55.845 9.69607e-08 
595 1 0.25 0.0357143 0 55.845 5.01661e-09 
313 1 0.285688 0.107093 0.209951 55.845 4.94186e-07 
323 1 0.249991 1.73668e-05 0.209971 55.845 4.45989e-07 
325 1 0.28571 0.0357223 0.210071 55.845 2.33653e-07 
327 1 0.321402 0.0714825 0.21004 55.845 3.48587e-07 
329 1 0.357143 0.107145 0.210038 55.845 3.05636e-07 
337 1 0.321463 -2.51267e-05 0.209962 55.845 4.24614e-07 
339 1 0.357175 0.0358411 0.209962 55.845 3.93935e-07 
415 1 0.285685 0.107123 0.126109 55.845 1.7228e-07 
425 1 0.250048 3.39078e-05 0.126178 55.845 -6.74331e-08 
427 1 0.285683 0.0356918 0.126098 55.845 1.83218e-07 
428 1 0.28568 0.0714153 0.167782 55.845 -1.77595e-07 
429 1 0.321463 0.071396 0.126127 55.845 1.0825e-07 
430 1 0.321419 0.107168 0.167783 55.845 -2.9861e-08 
431 1 0.357184 0.107166 0.126142 55.845 -9.2256e-08 
439 1 0.321407 -9.06174e-05 0.126056 55.845 3.10972e-08 
440 1 0.321398 0.035773 0.167762 55.845 -1.07982e-07 
441 1 0.357134 0.035681 0.126153 55.845 1.12621e-07 
442 1 0.357163 0.0714478 0.167726 55.845 -1.52971e-07 
517 1 0.285714 0.107143 0.0416667 55.845 -3.05528e-08 
527 1 0.25 0 0.0416667 55.845 -7.01442e-08 
529 1 0.285714 0.0357143 0.0416667 55.845 7.84997e-08 
530 1 0.285721 0.0714502 0.0845236 55.845 2.11508e-07 
531 1 0.321429 0.0714286 0.0416667 55.845 -1.44542e-07 
532 1 0.321444 0.107149 0.084736 55.845 8.27766e-08 
533 1 0.357143 0.107143 0.0416667 55.845 -2.45543e-07 
603 1 0.357143 0.0714286 0 55.845 -1.12709e-07 
541 1 0.321429 0 0.0416667 55.845 -1.30365e-07 
542 1 0.321428 0.0356694 0.0846605 55.845 2.14949e-07 
543 1 0.357143 0.0357143 0.0416667 55.845 -1.09613e-07 
544 1 0.357074 0.071494 0.0846128 55.845 1.08101e-08 
602 1 0.321429 0.0357143 0 55.845 -1.73985e-08 
596 1 0.285714 0.0714286 0 55.845 2.08091e-07 
597 1 0.321429 0.107143 0 55.845 1.52486e-08 
612 1 0.464286 0.0357143 0 55.845 -1.46036e-07 
611 1 0.428571 0 0 55.845 7.21598e-08 
610 1 0.464286 0.107143 0 55.845 -9.16921e-09 
609 1 0.428571 0.0714286 0 55.845 -2.25158e-08 
608 1 0.392857 0.0357143 0 55.845 2.47658e-08 
341 1 0.392871 0.0714041 0.210172 55.845 3.10704e-07 
343 1 0.428589 0.107123 0.210128 55.845 2.87276e-07 
348 1 0.392778 -3.25845e-05 0.209989 55.845 2.21664e-07 
350 1 0.428577 0.0356707 0.210073 55.845 1.35914e-07 
352 1 0.464224 0.071415 0.210023 55.845 2.14572e-07 
355 1 0.464261 1.18903e-05 0.209886 55.845 2.5359e-07 
443 1 0.392858 0.0715097 0.12614 55.845 2.3261e-07 
444 1 0.392966 0.107201 0.167807 55.845 -1.49377e-07 
445 1 0.428541 0.107134 0.126045 55.845 2.55062e-08 
604 1 0.392857 0.107143 0 55.845 1.36994e-07 
450 1 0.392812 -1.85793e-05 0.126105 55.845 2.33494e-07 
451 1 0.392886 0.0356626 0.167828 55.845 4.6237e-09 
452 1 0.428566 0.0357346 0.126081 55.845 1.94757e-07 
453 1 0.428547 0.0714573 0.16785 55.845 -1.26014e-07 
454 1 0.464232 0.0714291 0.12615 55.845 2.77278e-08 
455 1 0.464272 0.107098 0.167757 55.845 -2.09504e-07 
456 1 0.428522 1.19013e-05 0.167799 55.845 -2.38308e-07 
457 1 0.464285 -3.92746e-05 0.125984 55.845 -5.18585e-08 
458 1 0.464298 0.0357383 0.167711 55.845 -1.55922e-07 
545 1 0.392857 0.0714286 0.0416667 55.845 -1.22649e-08 
546 1 0.39289 0.107162 0.0845882 55.845 8.87114e-08 
547 1 0.428571 0.107143 0.0416667 55.845 -3.62629e-08 
552 1 0.392857 0 0.0416667 55.845 3.91285e-08 
553 1 0.392809 0.0357221 0.0846675 55.845 2.96851e-07 
554 1 0.428571 0.0357143 0.0416667 55.845 -1.03315e-07 
555 1 0.42863 0.0714462 0.08459 55.845 7.53617e-08 
556 1 0.464286 0.0714286 0.0416667 55.845 -2.91355e-07 
557 1 0.464296 0.107174 0.0846145 55.845 2.95612e-07 
558 1 0.428545 6.92638e-06 0.0845497 55.845 7.03037e-08 
559 1 0.464286 0 0.0416667 55.845 -2.25564e-07 
560 1 0.464271 0.0356801 0.0845873 55.845 2.02695e-08 
255 1 -6.0872e-05 0.178641 0.210091 55.845 4.13956e-07 
257 1 0.0356727 0.214228 0.210236 55.845 1.8927e-07 
261 1 0.0357197 0.142866 0.210006 55.845 4.67532e-07 
263 1 0.0714681 0.178644 0.210039 55.845 1.60638e-07 
265 1 0.107227 0.214349 0.209973 55.845 1.79176e-07 
273 1 0.107158 0.142884 0.210004 55.845 3.04972e-07 
357 1 2.73213e-05 0.178585 0.12604 55.845 -5.507e-08 
358 1 1.98765e-05 0.214367 0.167806 55.845 6.16439e-09 
359 1 0.0357131 0.214304 0.126266 55.845 1.67916e-07 
360 1 0.0357215 0.249976 0.167814 55.845 1.08252e-07 
362 1 -1.43109e-05 0.142888 0.167728 55.845 -3.29807e-07 
363 1 0.0357218 0.142897 0.125953 55.845 -1.32154e-07 
364 1 0.035727 0.178585 0.167684 55.845 -2.19439e-07 
365 1 0.0714857 0.178595 0.12598 55.845 1.79617e-07 
366 1 0.0714207 0.214263 0.167877 55.845 -3.04938e-08 
367 1 0.107126 0.21437 0.126136 55.845 7.22345e-08 
368 1 0.107181 0.250044 0.167846 55.845 -9.4868e-08 
374 1 0.0713963 0.142956 0.167788 55.845 -1.59218e-07 
375 1 0.107162 0.142904 0.126051 55.845 -1.63761e-08 
376 1 0.107116 0.178621 0.167855 55.845 4.30796e-08 
459 1 0 0.178571 0.0416667 55.845 -2.38304e-07 
460 1 4.18517e-05 0.214214 0.0846614 55.845 2.2931e-07 
461 1 0.0357143 0.214286 0.0416667 55.845 -1.63465e-07 
462 1 0.0356986 0.250021 0.084597 55.845 4.95863e-08 
464 1 -4.24974e-05 0.142849 0.0845783 55.845 1.24258e-07 
465 1 0.0357143 0.142857 0.0416667 55.845 -2.97456e-07 
466 1 0.0357277 0.178598 0.0845861 55.845 2.28139e-07 
467 1 0.0714286 0.178571 0.0416667 55.845 -8.1022e-08 
468 1 0.0714565 0.214336 0.0845973 55.845 2.58599e-08 
469 1 0.107143 0.214286 0.0416667 55.845 -2.6144e-08 
470 1 0.107096 0.250006 0.0846601 55.845 5.84087e-08 
476 1 0.0714981 0.142852 0.084672 55.845 7.1648e-08 
477 1 0.107143 0.142857 0.0416667 55.845 -2.07095e-07 
478 1 0.107161 0.178648 0.084551 55.845 1.1431e-07 
561 1 0 0.214286 0 55.845 1.37769e-07 
562 1 0.0357143 0.25 0 55.845 9.85638e-08 
563 1 0 0.142857 0 55.845 -2.34411e-07 
564 1 0.0357143 0.178571 0 55.845 -7.63844e-08 
565 1 0.0714286 0.214286 0 55.845 -2.78209e-08 
566 1 0.107143 0.25 0 55.845 2.80792e-08 
569 1 0.0714286 0.142857 0 55.845 1.68334e-07 
570 1 0.107143 0.178571 0 55.845 -4.53737e-08 
275 1 0.142891 0.178661 0.210009 55.845 3.1227e-07 
277 1 0.178601 0.214364 0.210059 55.845 1.25015e-07 
287 1 0.178633 0.142887 0.210056 55.845 2.52846e-07 
289 1 0.214301 0.178537 0.210023 55.845 2.64306e-07 
291 1 0.250019 0.214273 0.209989 55.845 5.68988e-07 
301 1 0.249973 0.142893 0.209954 55.845 2.74388e-07 
377 1 0.142781 0.178578 0.126032 55.845 4.33753e-08 
378 1 0.142912 0.214339 0.167804 55.845 -2.50368e-07 
379 1 0.178581 0.214251 0.126131 55.845 3.50122e-08 
388 1 0.142874 0.142864 0.167804 55.845 -8.40539e-08 
389 1 0.178539 0.142823 0.126071 55.845 2.96331e-07 
390 1 0.17855 0.178553 0.167694 55.845 7.63387e-08 
391 1 0.214203 0.178581 0.126127 55.845 2.59571e-07 
392 1 0.214291 0.214275 0.16787 55.845 1.55345e-08 
393 1 0.249961 0.214269 0.126113 55.845 1.81746e-07 
402 1 0.214291 0.142819 0.167655 55.845 -8.67868e-08 
403 1 0.249999 0.142869 0.126151 55.845 -1.62847e-07 
404 1 0.249913 0.178624 0.167793 55.845 -2.57574e-08 
479 1 0.142857 0.178571 0.0416667 55.845 -1.73777e-07 
480 1 0.142813 0.214342 0.0845796 55.845 9.64707e-08 
481 1 0.178571 0.214286 0.0416667 55.845 -1.28204e-07 
490 1 0.142871 0.142865 0.0845273 55.845 -9.09509e-08 
491 1 0.178571 0.142857 0.0416667 55.845 -3.20203e-08 
492 1 0.178465 0.178603 0.0846472 55.845 3.0993e-07 
493 1 0.214286 0.178571 0.0416667 55.845 -1.51212e-08 
494 1 0.214288 0.214252 0.0846076 55.845 5.78208e-08 
495 1 0.25 0.214286 0.0416667 55.845 -2.13834e-07 
504 1 0.214323 0.142905 0.0845611 55.845 3.66646e-07 
505 1 0.25 0.142857 0.0416667 55.845 -2.00137e-07 
506 1 0.249967 0.178537 0.0846194 55.845 1.07516e-07 
571 1 0.142857 0.214286 0 55.845 -1.20732e-07 
576 1 0.142857 0.142857 0 55.845 -6.12707e-08 
577 1 0.178571 0.178571 0 55.845 9.95894e-08 
578 1 0.214286 0.214286 0 55.845 2.75759e-08 
583 1 0.214286 0.142857 0 55.845 1.20979e-07 
584 1 0.25 0.178571 0 55.845 -1.75845e-08 
303 1 0.285722 0.178532 0.210077 55.845 1.66817e-07 
305 1 0.32148 0.214227 0.210027 55.845 2.8568e-07 
315 1 0.321346 0.142896 0.209966 55.845 3.72014e-07 
317 1 0.357143 0.178582 0.210187 55.845 1.04359e-07 
405 1 0.285745 0.178568 0.126175 55.845 -1.50316e-07 
406 1 0.285666 0.214347 0.167774 55.845 1.11984e-07 
407 1 0.321405 0.214319 0.12621 55.845 1.30742e-07 
416 1 0.285645 0.142899 0.167747 55.845 -2.09448e-07 
417 1 0.321475 0.142893 0.12619 55.845 -1.90337e-08 
418 1 0.321468 0.17853 0.167828 55.845 -8.11236e-08 
419 1 0.357132 0.178582 0.126132 55.845 5.06248e-08 
420 1 0.357127 0.214314 0.16775 55.845 -9.07837e-08 
432 1 0.357186 0.142893 0.167756 55.845 -2.04889e-07 
507 1 0.285714 0.178571 0.0416667 55.845 -3.55862e-07 
508 1 0.285706 0.214332 0.0846724 55.845 7.63341e-08 
509 1 0.321429 0.214286 0.0416667 55.845 -1.16757e-07 
518 1 0.285725 0.142855 0.0847231 55.845 -2.21102e-08 
519 1 0.321429 0.142857 0.0416667 55.845 -3.43207e-07 
520 1 0.32139 0.178564 0.084695 55.845 5.49556e-08 
521 1 0.357143 0.178571 0.0416667 55.845 -2.55464e-07 
522 1 0.357134 0.214281 0.0845859 55.845 3.3072e-07 
534 1 0.357173 0.142908 0.0846849 55.845 5.88647e-08 
585 1 0.285714 0.214286 0 55.845 1.07218e-07 
590 1 0.285714 0.142857 0 55.845 -9.2203e-08 
591 1 0.321429 0.178571 0 55.845 -1.12362e-07 
592 1 0.357143 0.214286 0 55.845 1.39501e-07 
598 1 0.357143 0.142857 0 55.845 3.43695e-08 
319 1 0.392894 0.214251 0.210088 55.845 1.33134e-07 
321 1 0.428507 0.250034 0.209895 55.845 3.64809e-07 
331 1 0.392866 0.14284 0.210094 55.845 2.05111e-07 
333 1 0.428547 0.178614 0.210009 55.845 2.39655e-07 
335 1 0.464301 0.214352 0.20997 55.845 4.40088e-07 
345 1 0.464218 0.142776 0.210014 55.845 3.41515e-07 
606 1 0.464286 0.178571 0 55.845 -2.42473e-08 
421 1 0.392838 0.214275 0.126053 55.845 4.73664e-08 
422 1 0.39286 0.249941 0.16769 55.845 -1.87222e-07 
423 1 0.428572 0.25006 0.126044 55.845 2.61417e-07 
433 1 0.39287 0.142886 0.126133 55.845 5.24691e-08 
434 1 0.392791 0.178535 0.167836 55.845 -1.6109e-07 
435 1 0.428614 0.178593 0.126148 55.845 1.55457e-08 
436 1 0.428548 0.214291 0.167725 55.845 -5.73716e-08 
437 1 0.46429 0.214266 0.126128 55.845 6.7892e-08 
605 1 0.428571 0.142857 0 55.845 6.5085e-08 
446 1 0.42857 0.142886 0.167756 55.845 -1.78924e-07 
447 1 0.464259 0.142846 0.126185 55.845 -7.31859e-08 
448 1 0.46427 0.178617 0.167789 55.845 -2.10037e-07 
523 1 0.392857 0.214286 0.0416667 55.845 -1.2826e-07 
524 1 0.392838 0.250009 0.0846374 55.845 6.5968e-08 
525 1 0.428571 0.25 0.0416667 55.845 1.69834e-07 
535 1 0.392857 0.142857 0.0416667 55.845 -2.81178e-07 
536 1 0.392825 0.178538 0.084643 55.845 8.47834e-08 
537 1 0.428571 0.178571 0.0416667 55.845 -1.954e-07 
538 1 0.428579 0.214359 0.0845379 55.845 1.9712e-07 
539 1 0.464286 0.214286 0.0416667 55.845 -3.53481e-08 
548 1 0.428568 0.142889 0.084615 55.845 1.09537e-07 
549 1 0.464286 0.142857 0.0416667 55.845 -1.60638e-07 
550 1 0.464313 0.178577 0.0846048 55.845 1.60008e-07 
593 1 0.392857 0.25 0 55.845 1.87341e-07 
599 1 0.392857 0.178571 0 55.845 3.08011e-08 
600 1 0.428571 0.214286 0 55.845 4.0256e-08 
3 1 7.5417e-05 0.107116 0.462724 55.845 6.34056e-07 
7 1 2.46226e-05 0.0356533 0.462771 55.845 4.71416e-07 
8 1 0.0358195 0.0713872 0.462706 55.845 6.66069e-07 
9 1 0.0714686 0.107103 0.462685 55.845 4.08804e-07 
13 1 0.0357755 -1.66088e-05 0.462716 55.845 4.73224e-07 
14 1 0.0714298 0.0357365 0.462712 55.845 2.43462e-07 
15 1 0.107176 0.0714557 0.462783 55.845 2.73138e-07 
20 1 0.107072 3.34683e-05 0.46274 55.845 5.57295e-07 
55 1 6.38541e-05 0.107182 0.379431 55.845 -2.81162e-07 
63 1 -1.09387e-05 0.0356988 0.379369 55.845 -2.21366e-07 
64 1 8.375e-05 0.0714202 0.421077 55.845 3.43385e-08 
65 1 0.0357711 0.0714246 0.379344 55.845 -3.27957e-07 
66 1 0.0357877 0.107208 0.421093 55.845 2.21921e-07 
67 1 0.071476 0.10713 0.379341 55.845 -1.92611e-07 
74 1 4.25975e-05 3.66139e-05 0.421069 55.845 -8.07455e-08 
75 1 0.0356909 5.56355e-05 0.379451 55.845 -2.0346e-07 
76 1 0.0357296 0.0357561 0.421073 55.845 1.03028e-08 
77 1 0.0714053 0.0357027 0.379364 55.845 -2.90292e-07 
78 1 0.0714961 0.071435 0.42101 55.845 -1.5027e-07 
79 1 0.107112 0.071427 0.379418 55.845 -2.18955e-07 
80 1 0.107181 0.107188 0.421098 55.845 1.04039e-07 
88 1 0.071511 1.20925e-05 0.421085 55.845 -6.26816e-08 
89 1 0.107192 -2.37315e-05 0.379418 55.845 -1.21139e-07 
90 1 0.107097 0.0357415 0.421068 55.845 -2.41577e-07 
157 1 5.125e-05 0.107124 0.294698 55.845 4.95882e-08 
165 1 -5.44562e-05 0.0357002 0.294751 55.845 -1.35594e-07 
166 1 7.6413e-05 0.071454 0.33705 55.845 3.62688e-07 
167 1 0.035786 0.0714074 0.294584 55.845 -1.3235e-07 
168 1 0.0357431 0.107135 0.336998 55.845 3.2044e-07 
169 1 0.0714536 0.107208 0.294635 55.845 -1.19589e-07 
176 1 2.69187e-05 -4.94751e-05 0.33696 55.845 2.13313e-07 
177 1 0.0357102 4.20872e-06 0.294662 55.845 -2.96959e-07 
178 1 0.0356662 0.0357512 0.336966 55.845 5.13487e-08 
179 1 0.0714489 0.0358078 0.294698 55.845 -6.09954e-08 
180 1 0.0714721 0.0715085 0.336955 55.845 1.81945e-07 
181 1 0.107164 0.0714327 0.294701 55.845 -1.8958e-07 
182 1 0.107163 0.107203 0.336977 55.845 3.43619e-07 
190 1 0.0712977 -2.94894e-05 0.336967 55.845 2.18697e-07 
191 1 0.107127 6.18193e-05 0.294819 55.845 -2.43742e-07 
192 1 0.107172 0.0357196 0.336972 55.845 2.19158e-07 
268 1 1.14627e-05 0.0714562 0.252404 55.845 -5.31234e-07 
270 1 0.0357061 0.10716 0.252422 55.845 -2.73108e-07 
278 1 2.71199e-05 -2.71337e-05 0.252487 55.845 -5.40258e-07 
280 1 0.0356536 0.0357324 0.252381 55.845 -5.62146e-07 
282 1 0.0714619 0.0714916 0.252391 55.845 -4.67044e-07 
284 1 0.107098 0.107182 0.25239 55.845 -5.44253e-07 
292 1 0.0714213 5.34985e-06 0.252566 55.845 -4.78793e-07 
294 1 0.107198 0.03572 0.252586 55.845 -5.63321e-07 
16 1 0.142854 0.107193 0.462678 55.845 6.14163e-07 
21 1 0.142913 0.0357519 0.462707 55.845 2.78525e-07 
22 1 0.178587 0.0714268 0.462649 55.845 5.82258e-07 
23 1 0.214277 0.107097 0.462795 55.845 6.5543e-07 
27 1 0.178566 3.17809e-05 0.462748 55.845 2.89448e-07 
28 1 0.214346 0.0356716 0.462758 55.845 3.43963e-07 
29 1 0.249961 0.0715016 0.462786 55.845 4.67246e-07 
81 1 0.14293 0.107195 0.379413 55.845 -2.47346e-07 
91 1 0.142863 0.0357316 0.379388 55.845 -2.25743e-07 
92 1 0.142826 0.0714354 0.421039 55.845 -1.95059e-07 
93 1 0.178542 0.0714847 0.379446 55.845 -5.02642e-07 
94 1 0.178582 0.107092 0.42112 55.845 -1.08958e-07 
95 1 0.214228 0.107096 0.379382 55.845 -3.70458e-07 
102 1 0.142891 8.2591e-05 0.421139 55.845 2.31383e-08 
103 1 0.178623 -5.12688e-05 0.379376 55.845 -4.53703e-07 
104 1 0.178601 0.0357414 0.420991 55.845 4.0473e-09 
105 1 0.214212 0.0356829 0.379554 55.845 -3.00625e-07 
106 1 0.214294 0.0714037 0.42103 55.845 -5.02364e-08 
107 1 0.24994 0.0714377 0.379463 55.845 -3.74471e-07 
108 1 0.249963 0.107189 0.421007 55.845 -1.00459e-07 
118 1 0.214357 5.50627e-05 0.421172 55.845 -1.35408e-07 
120 1 0.249992 0.035718 0.420918 55.845 -6.78039e-08 
183 1 0.142817 0.10717 0.294673 55.845 -1.37417e-07 
193 1 0.142859 0.0357579 0.294661 55.845 -2.26699e-07 
194 1 0.142895 0.0714432 0.336992 55.845 2.7616e-07 
195 1 0.178513 0.0714248 0.294706 55.845 -1.1437e-07 
196 1 0.178548 0.107125 0.336986 55.845 4.61484e-07 
197 1 0.214287 0.107169 0.294793 55.845 2.70444e-09 
204 1 0.142875 6.97961e-05 0.336988 55.845 3.3663e-07 
205 1 0.178621 1.66777e-05 0.294783 55.845 -1.90836e-07 
206 1 0.178511 0.0357389 0.336963 55.845 4.48726e-07 
207 1 0.214198 0.0357224 0.294646 55.845 2.99684e-08 
208 1 0.214215 0.0713793 0.336965 55.845 3.67495e-07 
209 1 0.249947 0.0714472 0.294706 55.845 -1.59163e-07 
210 1 0.249999 0.107164 0.337092 55.845 3.69621e-07 
220 1 0.21426 1.58434e-05 0.337077 55.845 2.42648e-07 
222 1 0.249934 0.0357418 0.337094 55.845 1.67563e-07 
296 1 0.142858 0.0714335 0.25245 55.845 -4.51615e-07 
298 1 0.178556 0.10716 0.25255 55.845 -5.09129e-07 
306 1 0.142858 -4.17667e-05 0.25247 55.845 -7.63971e-07 
308 1 0.17854 0.0356905 0.252451 55.845 -4.54686e-07 
310 1 0.214214 0.0715181 0.25243 55.845 -3.79118e-07 
312 1 0.250056 0.107164 0.252507 55.845 -3.7106e-07 
322 1 0.214233 6.45268e-05 0.25251 55.845 -4.00531e-07 
324 1 0.249943 0.0357538 0.252541 55.845 -5.27724e-07 
30 1 0.285666 0.107222 0.462738 55.845 5.32827e-07 
35 1 0.250026 -4.2212e-05 0.462842 55.845 6.11285e-07 
36 1 0.285655 0.0357359 0.46263 55.845 5.00221e-07 
37 1 0.321401 0.0714722 0.462719 55.845 2.99301e-07 
38 1 0.357141 0.107194 0.462892 55.845 4.56767e-07 
42 1 0.321435 4.20552e-05 0.462692 55.845 4.49694e-07 
43 1 0.357148 0.0357778 0.462757 55.845 4.06402e-07 
109 1 0.285705 0.107215 0.379491 55.845 -3.03017e-07 
119 1 0.250002 -5.22697e-06 0.379465 55.845 -2.4498e-07 
121 1 0.285709 0.0357698 0.379344 55.845 -6.15297e-07 
122 1 0.285695 0.0714811 0.421115 55.845 -4.57997e-08 
123 1 0.321374 0.0714274 0.379476 55.845 -1.85773e-07 
124 1 0.321469 0.107161 0.420971 55.845 -1.40005e-07 
125 1 0.357105 0.107168 0.379522 55.845 -4.7939e-07 
133 1 0.321383 0.00012081 0.379526 55.845 -3.50295e-07 
134 1 0.321435 0.0357187 0.421047 55.845 -1.1411e-08 
135 1 0.35719 0.0357336 0.379407 55.845 -3.34818e-07 
136 1 0.357128 0.0713858 0.421036 55.845 -8.08879e-08 
211 1 0.285742 0.107137 0.294691 55.845 -3.14887e-08 
221 1 0.250038 6.95733e-05 0.294764 55.845 2.92675e-08 
223 1 0.285648 0.0357711 0.294705 55.845 -1.8537e-07 
224 1 0.285681 0.0714807 0.337046 55.845 4.0547e-07 
225 1 0.321374 0.0714802 0.29471 55.845 4.66695e-08 
226 1 0.321406 0.107189 0.337049 55.845 3.17879e-07 
227 1 0.357135 0.10712 0.294683 55.845 -2.23482e-07 
235 1 0.321368 -3.04098e-06 0.294778 55.845 -2.52498e-08 
236 1 0.321429 0.0357347 0.336946 55.845 3.91152e-07 
237 1 0.357153 0.0357844 0.294703 55.845 2.79143e-08 
238 1 0.35714 0.0714427 0.337126 55.845 3.1026e-07 
326 1 0.28572 0.0715104 0.252424 55.845 -5.2086e-07 
328 1 0.321417 0.107167 0.252396 55.845 -4.1069e-07 
338 1 0.32143 0.0356939 0.252506 55.845 -4.06974e-07 
340 1 0.357055 0.071463 0.252499 55.845 -2.67799e-07 
44 1 0.39284 0.0713561 0.462716 55.845 4.87563e-07 
45 1 0.428608 0.107184 0.462756 55.845 2.83741e-07 
47 1 0.392874 3.34144e-07 0.462831 55.845 3.38482e-07 
48 1 0.428564 0.0357358 0.462854 55.845 3.78986e-07 
49 1 0.464251 0.0715076 0.462763 55.845 7.16105e-07 
50 1 0.464241 4.8302e-05 0.462894 55.845 4.02199e-07 
137 1 0.392898 0.0714154 0.37946 55.845 -1.78192e-07 
138 1 0.392825 0.107103 0.421048 55.845 -1.89345e-07 
139 1 0.42849 0.107134 0.379478 55.845 -2.94203e-07 
144 1 0.392908 9.78395e-07 0.379372 55.845 -3.65357e-07 
145 1 0.392822 0.0356716 0.420977 55.845 -6.59735e-08 
146 1 0.428578 0.035717 0.379469 55.845 -2.51037e-07 
147 1 0.428556 0.071365 0.421261 55.845 4.98251e-08 
148 1 0.464229 0.0714052 0.379441 55.845 -3.29691e-07 
149 1 0.464289 0.107206 0.42096 55.845 -1.62764e-07 
150 1 0.428536 1.77128e-05 0.421092 55.845 -1.30333e-07 
151 1 0.464254 8.099e-06 0.379538 55.845 -2.27686e-07 
152 1 0.464239 0.0357018 0.421236 55.845 9.17033e-08 
239 1 0.392825 0.07145 0.294736 55.845 -1.3546e-07 
240 1 0.392847 0.107152 0.337046 55.845 2.26944e-07 
241 1 0.428616 0.107223 0.294712 55.845 -8.31723e-08 
246 1 0.392826 -4.35714e-05 0.294669 55.845 -1.85146e-07 
247 1 0.392784 0.0356975 0.336984 55.845 1.66641e-07 
248 1 0.428594 0.0356658 0.294764 55.845 -2.37384e-09 
249 1 0.428551 0.071443 0.337071 55.845 2.23055e-07 
250 1 0.464308 0.0714098 0.294828 55.845 -1.27299e-07 
251 1 0.464212 0.107079 0.337029 55.845 2.32507e-07 
252 1 0.428541 -4.67999e-06 0.337082 55.845 2.93783e-07 
253 1 0.464285 4.29775e-05 0.294898 55.845 2.29022e-09 
254 1 0.464279 0.0357328 0.337121 55.845 4.9009e-07 
342 1 0.392852 0.107152 0.252513 55.845 -4.59512e-07 
349 1 0.392854 0.0356196 0.252545 55.845 -3.51741e-07 
351 1 0.428584 0.0713823 0.252569 55.845 -3.42636e-07 
353 1 0.464273 0.107147 0.252518 55.845 -5.91735e-07 
354 1 0.428537 -2.69493e-05 0.252554 55.845 -5.6972e-07 
356 1 0.46425 0.0357093 0.252529 55.845 -4.64155e-07 
1 1 4.09573e-05 0.178624 0.462737 55.845 5.51862e-07 
2 1 0.0357752 0.214344 0.46279 55.845 2.46869e-07 
4 1 0.0357204 0.142853 0.46275 55.845 7.18871e-07 
5 1 0.0714939 0.178544 0.46277 55.845 3.1166e-07 
6 1 0.10721 0.214277 0.462731 55.845 4.15035e-07 
10 1 0.107049 0.142821 0.462733 55.845 6.62847e-07 
51 1 2.44435e-05 0.178596 0.379391 55.845 -3.81888e-07 
52 1 2.80767e-05 0.214349 0.421047 55.845 -5.57823e-08 
53 1 0.0356671 0.214376 0.37948 55.845 -2.54717e-07 
54 1 0.0356932 0.250069 0.421122 55.845 8.9384e-09 
56 1 2.685e-08 0.142866 0.421056 55.845 2.21327e-08 
57 1 0.0357363 0.142899 0.379424 55.845 -4.6895e-07 
58 1 0.0357701 0.178638 0.42113 55.845 -1.49221e-07 
59 1 0.0714227 0.178598 0.379508 55.845 -3.26976e-07 
60 1 0.0713923 0.214308 0.421163 55.845 -1.07569e-07 
61 1 0.107165 0.214308 0.379422 55.845 -2.39482e-07 
62 1 0.10714 0.25003 0.421052 55.845 -3.53962e-07 
68 1 0.0713935 0.142891 0.421121 55.845 -1.43356e-07 
69 1 0.107104 0.14292 0.379479 55.845 -9.65477e-08 
70 1 0.107145 0.178618 0.421154 55.845 -1.15723e-07 
153 1 -2.24413e-05 0.178543 0.294839 55.845 9.99298e-08 
154 1 -6.10846e-06 0.214359 0.337121 55.845 3.32437e-07 
155 1 0.0357485 0.214252 0.294787 55.845 -3.312e-07 
156 1 0.0356279 0.250052 0.336986 55.845 4.84533e-08 
158 1 4.83882e-05 0.142848 0.337066 55.845 5.71758e-07 
159 1 0.0357235 0.142883 0.294765 55.845 1.02336e-07 
160 1 0.0357681 0.178564 0.337087 55.845 2.50919e-07 
161 1 0.0714704 0.178619 0.294668 55.845 -7.80503e-08 
162 1 0.0714427 0.214293 0.337054 55.845 3.01548e-07 
163 1 0.107169 0.214306 0.294893 55.845 8.77082e-08 
164 1 0.107192 0.250023 0.337076 55.845 2.41756e-07 
170 1 0.0714482 0.142886 0.336933 55.845 1.57321e-07 
171 1 0.107146 0.142881 0.294691 55.845 -2.14374e-07 
172 1 0.107142 0.178571 0.337083 55.845 2.5199e-07 
256 1 -3.51182e-05 0.214366 0.252583 55.845 -4.23229e-07 
258 1 0.0357524 0.250007 0.252485 55.845 -5.0637e-07 
260 1 7.07457e-06 0.142855 0.252556 55.845 -3.32324e-07 
262 1 0.0356947 0.178583 0.252621 55.845 -4.69065e-07 
264 1 0.071442 0.21434 0.252499 55.845 -5.5149e-07 
266 1 0.107072 0.250002 0.252504 55.845 -4.22464e-07 
272 1 0.0714641 0.1429 0.252457 55.845 -4.15329e-07 
274 1 0.107159 0.178613 0.252495 55.845 -4.0437e-07 
11 1 0.142868 0.178541 0.462761 55.845 4.3319e-07 
12 1 0.178632 0.214291 0.462696 55.845 5.33492e-07 
17 1 0.178519 0.142827 0.462747 55.845 4.96578e-07 
18 1 0.214265 0.178579 0.462766 55.845 2.13597e-07 
19 1 0.24997 0.214323 0.462694 55.845 2.44632e-07 
24 1 0.24989 0.142842 0.462832 55.845 5.21974e-07 
71 1 0.142886 0.178517 0.379417 55.845 -2.01109e-07 
72 1 0.1429 0.214234 0.421019 55.845 -1.41092e-07 
73 1 0.178618 0.214296 0.379326 55.845 -3.81713e-07 
82 1 0.142816 0.142852 0.421086 55.845 1.14412e-07 
83 1 0.178538 0.14288 0.379433 55.845 -3.03337e-07 
84 1 0.178545 0.178622 0.421092 55.845 -1.77097e-07 
85 1 0.214241 0.178561 0.379311 55.845 -3.35891e-07 
86 1 0.214267 0.214276 0.421118 55.845 6.30026e-09 
87 1 0.249955 0.214267 0.379458 55.845 -1.93928e-07 
96 1 0.214252 0.142914 0.421052 55.845 -1.36883e-07 
97 1 0.24995 0.142832 0.379407 55.845 -2.21017e-07 
98 1 0.249946 0.178581 0.421166 55.845 -1.81884e-07 
173 1 0.14288 0.178619 0.294804 55.845 -4.97063e-08 
174 1 0.142881 0.214324 0.337158 55.845 1.91055e-07 
175 1 0.178579 0.214347 0.294765 55.845 -1.00572e-07 
184 1 0.142839 0.142934 0.337041 55.845 3.2787e-07 
185 1 0.178558 0.142927 0.294703 55.845 -3.32056e-08 
186 1 0.17847 0.178634 0.336908 55.845 2.61667e-07 
187 1 0.214304 0.178583 0.294739 55.845 1.00077e-08 
188 1 0.214301 0.214317 0.337035 55.845 2.82612e-07 
189 1 0.250041 0.214202 0.294692 55.845 -1.23741e-07 
198 1 0.214212 0.142901 0.337098 55.845 5.12829e-07 
199 1 0.250012 0.142833 0.294605 55.845 4.20379e-09 
200 1 0.249978 0.17853 0.337084 55.845 3.18257e-07 
276 1 0.142903 0.214316 0.252644 55.845 -4.02874e-07 
286 1 0.142838 0.142952 0.252397 55.845 -3.67648e-07 
288 1 0.178614 0.178647 0.252468 55.845 -3.77191e-07 
290 1 0.214306 0.214339 0.252514 55.845 -3.50289e-07 
300 1 0.214278 0.142898 0.25246 55.845 -4.73083e-07 
302 1 0.250006 0.178556 0.252436 55.845 -3.96508e-07 
25 1 0.285653 0.178545 0.462713 55.845 2.52091e-07 
26 1 0.321475 0.21426 0.462759 55.845 2.72492e-07 
31 1 0.321438 0.142859 0.462748 55.845 4.93987e-07 
32 1 0.357199 0.178599 0.462833 55.845 3.39167e-07 
99 1 0.285645 0.178606 0.379491 55.845 -2.94678e-07 
100 1 0.285739 0.214298 0.421059 55.845 -2.44779e-07 
101 1 0.321463 0.214281 0.379542 55.845 -2.02093e-07 
110 1 0.285662 0.142836 0.42107 55.845 -5.81075e-08 
111 1 0.321466 0.142865 0.379497 55.845 -5.31813e-07 
112 1 0.321465 0.178605 0.421088 55.845 1.76568e-08 
113 1 0.357223 0.178583 0.379499 55.845 -8.08253e-08 
114 1 0.357228 0.214348 0.421049 55.845 -2.40222e-07 
126 1 0.357129 0.142881 0.421173 55.845 -2.42609e-07 
201 1 0.285707 0.178532 0.294745 55.845 -2.17231e-08 
202 1 0.285765 0.214237 0.337116 55.845 2.44482e-07 
203 1 0.321445 0.214307 0.294733 55.845 1.23538e-07 
212 1 0.285762 0.142827 0.337154 55.845 3.44976e-07 
213 1 0.321506 0.142901 0.294764 55.845 -1.45809e-07 
214 1 0.321491 0.17861 0.337131 55.845 4.2726e-07 
215 1 0.357144 0.178586 0.294754 55.845 9.34419e-08 
216 1 0.357183 0.214316 0.337049 55.845 4.98869e-07 