ITEM: TIMESTEP
6100
ITEM: NUMBER OF ATOMS
5880
ITEM: BOX BOUNDS pp pp ff
-27.9745 27.9745
-27.9745 27.9745
0 34.092
ITEM: ATOMS id type xs ys zs mass q 
259 1 -0.00010631 0.107157 0.208607 55.845 3.51968e-07 
267 1 -6.70027e-05 0.0357017 0.20862 55.845 5.03956e-07 
269 1 0.0356831 0.0713927 0.208716 55.845 4.08077e-07 
271 1 0.071351 0.107188 0.208608 55.845 3.01362e-07 
279 1 0.0357509 -7.26674e-06 0.208629 55.845 5.77727e-07 
281 1 0.0713613 0.0356582 0.208721 55.845 5.07376e-07 
283 1 0.107105 0.0714299 0.208578 55.845 4.34521e-07 
293 1 0.107081 7.46124e-05 0.208556 55.845 3.52401e-07 
361 1 2.85226e-05 0.107065 0.125368 55.845 -1.07982e-07 
369 1 5.11134e-05 0.0356816 0.125308 55.845 6.62288e-08 
370 1 -0.000104509 0.0714172 0.166717 55.845 6.97972e-08 
371 1 0.0356604 0.0714574 0.12554 55.845 -6.76554e-08 
372 1 0.0357326 0.107242 0.166559 55.845 1.54134e-07 
373 1 0.0714078 0.107177 0.125424 55.845 -4.13615e-07 
380 1 -1.5988e-07 2.37009e-05 0.166463 55.845 5.95722e-08 
381 1 0.0357046 -1.71411e-06 0.125312 55.845 -5.59116e-08 
382 1 0.0356478 0.0357862 0.166548 55.845 2.94225e-09 
383 1 0.0712947 0.0357224 0.125429 55.845 -7.87246e-08 
384 1 0.0713839 0.0713947 0.166699 55.845 1.41001e-07 
385 1 0.107068 0.0714728 0.12539 55.845 -3.59557e-07 
386 1 0.10705 0.107193 0.166669 55.845 3.97237e-07 
394 1 0.0714618 4.21651e-05 0.166776 55.845 3.5652e-08 
395 1 0.107161 2.20969e-05 0.125414 55.845 -4.43142e-08 
396 1 0.107067 0.0357854 0.166586 55.845 1.21551e-07 
463 1 0 0.107143 0.0416667 55.845 7.36273e-07 
471 1 0 0.0357143 0.0416667 55.845 8.69297e-07 
472 1 7.73271e-06 0.0714084 0.084462 55.845 -7.01473e-07 
473 1 0.0357143 0.0714286 0.0416667 55.845 7.84304e-07 
474 1 0.0357354 0.107068 0.0843839 55.845 -8.05568e-07 
475 1 0.0714286 0.107143 0.0416667 55.845 4.61995e-07 
482 1 -2.09493e-05 2.80386e-05 0.0843683 55.845 -1.04298e-06 
483 1 0.0357143 0 0.0416667 55.845 7.16906e-07 
484 1 0.0357099 0.0357354 0.0844436 55.845 -8.54886e-07 
485 1 0.0714286 0.0357143 0.0416667 55.845 6.93366e-07 
486 1 0.0713684 0.0714394 0.0844809 55.845 -8.76018e-07 
487 1 0.107143 0.0714286 0.0416667 55.845 4.96411e-07 
488 1 0.10715 0.107172 0.0845137 55.845 -7.82688e-07 
496 1 0.0714365 1.34605e-05 0.0845153 55.845 -7.99112e-07 
497 1 0.107143 0 0.0416667 55.845 9.05834e-07 
498 1 0.107019 0.035645 0.0844229 55.845 -9.41054e-07 
567 1 0 0.0714286 0 55.845 1.98142e-07 
568 1 0.0357143 0.107143 0 55.845 5.00448e-08 
572 1 0 0 0 55.845 -1.35837e-07 
573 1 0.0357143 0.0357143 0 55.845 9.38927e-08 
574 1 0.0714286 0.0714286 0 55.845 -9.46549e-08 
575 1 0.107143 0.107143 0 55.845 -3.14885e-08 
579 1 0.0714286 0 0 55.845 7.13979e-08 
580 1 0.107143 0.0357143 0 55.845 -6.09853e-08 
285 1 0.142878 0.107092 0.208669 55.845 3.21579e-07 
295 1 0.142732 0.0357593 0.208639 55.845 4.84209e-07 
297 1 0.178579 0.0714409 0.208621 55.845 4.24284e-07 
299 1 0.214361 0.107198 0.208559 55.845 4.35421e-07 
307 1 0.178525 5.97962e-05 0.208461 55.845 4.44023e-07 
309 1 0.214183 0.0358108 0.208549 55.845 3.90248e-07 
311 1 0.250066 0.0714978 0.208627 55.845 3.11834e-07 
387 1 0.142902 0.10717 0.125483 55.845 -2.62109e-07 
397 1 0.142833 0.0356714 0.125358 55.845 -1.31915e-07 
398 1 0.142854 0.0714267 0.166537 55.845 2.48583e-07 
399 1 0.178532 0.0715361 0.125376 55.845 -7.9951e-08 
400 1 0.178602 0.107153 0.166627 55.845 2.45935e-07 
401 1 0.214278 0.107152 0.125444 55.845 -5.9873e-08 
408 1 0.142729 -2.48934e-06 0.166649 55.845 1.88925e-07 
409 1 0.178572 -3.53493e-05 0.125371 55.845 -7.11598e-08 
410 1 0.178458 0.0357649 0.166567 55.845 1.34393e-07 
411 1 0.214155 0.0356793 0.125276 55.845 -9.59817e-08 
412 1 0.21426 0.0713644 0.166552 55.845 8.32148e-08 
413 1 0.250018 0.0714904 0.12534 55.845 -8.37158e-08 
414 1 0.250054 0.107135 0.166555 55.845 1.1297e-07 
424 1 0.214235 8.96374e-06 0.166371 55.845 9.41193e-08 
426 1 0.249927 0.0357232 0.166546 55.845 9.84526e-08 
489 1 0.142857 0.107143 0.0416667 55.845 6.43013e-07 
499 1 0.142857 0.0357143 0.0416667 55.845 6.94004e-07 
500 1 0.142702 0.0714701 0.0846274 55.845 -9.33073e-07 
501 1 0.178571 0.0714286 0.0416667 55.845 7.6481e-07 
502 1 0.178508 0.10721 0.084402 55.845 -8.0793e-07 
503 1 0.214286 0.107143 0.0416667 55.845 8.14886e-07 
510 1 0.142931 -4.41117e-05 0.084392 55.845 -8.98992e-07 
511 1 0.178571 0 0.0416667 55.845 7.71641e-07 
512 1 0.178498 0.0357879 0.0842735 55.845 -9.64412e-07 
513 1 0.214286 0.0357143 0.0416667 55.845 8.1743e-07 
514 1 0.214267 0.071438 0.0844725 55.845 -8.2654e-07 
515 1 0.25 0.0714286 0.0416667 55.845 7.83661e-07 
516 1 0.250045 0.107139 0.0844194 55.845 -8.78247e-07 
526 1 0.214319 4.43526e-05 0.0844249 55.845 -9.87204e-07 
528 1 0.250059 0.035752 0.0844174 55.845 -7.7022e-07 
581 1 0.142857 0.0714286 0 55.845 -1.46172e-07 
582 1 0.178571 0.107143 0 55.845 7.64292e-08 
586 1 0.142857 0 0 55.845 2.60085e-08 
587 1 0.178571 0.0357143 0 55.845 -3.49923e-08 
588 1 0.214286 0.0714286 0 55.845 4.47258e-08 
589 1 0.25 0.107143 0 55.845 3.59419e-08 
594 1 0.214286 0 0 55.845 -6.5628e-08 
595 1 0.25 0.0357143 0 55.845 1.03736e-07 
313 1 0.285772 0.107125 0.20852 55.845 3.20485e-07 
323 1 0.249851 5.47976e-05 0.208489 55.845 3.7887e-07 
325 1 0.28572 0.0357342 0.208682 55.845 2.39805e-07 
327 1 0.321527 0.0714684 0.208662 55.845 1.67423e-07 
329 1 0.357154 0.107172 0.208565 55.845 1.31034e-07 
337 1 0.321422 9.97594e-05 0.208615 55.845 1.37045e-07 
339 1 0.357125 0.0357532 0.208666 55.845 9.86802e-08 
415 1 0.28574 0.107102 0.125377 55.845 -2.44623e-07 
425 1 0.249975 -2.31261e-05 0.125414 55.845 -1.86527e-07 
427 1 0.285721 0.0357133 0.125256 55.845 -2.09999e-07 
428 1 0.285756 0.0713277 0.166533 55.845 2.18529e-07 
429 1 0.321433 0.0714683 0.125358 55.845 -3.24158e-07 
430 1 0.321495 0.107123 0.166599 55.845 3.86231e-07 
431 1 0.357205 0.10715 0.12519 55.845 -4.09185e-07 
439 1 0.321514 -7.12506e-05 0.125379 55.845 -3.43755e-07 
440 1 0.321384 0.0357526 0.166623 55.845 4.37098e-07 
441 1 0.357214 0.0357228 0.125298 55.845 -5.20498e-07 
442 1 0.357075 0.0714641 0.166435 55.845 5.4385e-07 
517 1 0.285714 0.107143 0.0416667 55.845 5.98837e-07 
527 1 0.25 0 0.0416667 55.845 6.93809e-07 
529 1 0.285714 0.0357143 0.0416667 55.845 7.41146e-07 
530 1 0.285744 0.0714871 0.0843384 55.845 -6.42252e-07 
531 1 0.321429 0.0714286 0.0416667 55.845 5.94352e-07 
532 1 0.321485 0.107205 0.0845294 55.845 -6.0597e-07 
533 1 0.357143 0.107143 0.0416667 55.845 5.78895e-07 
603 1 0.357143 0.0714286 0 55.845 4.92431e-08 
541 1 0.321429 0 0.0416667 55.845 6.21509e-07 
542 1 0.321455 0.0357422 0.0844872 55.845 -5.38375e-07 
543 1 0.357143 0.0357143 0.0416667 55.845 4.784e-07 
544 1 0.357142 0.0713808 0.0843251 55.845 -5.5796e-07 
602 1 0.321429 0.0357143 0 55.845 1.35669e-07 
596 1 0.285714 0.0714286 0 55.845 1.38095e-07 
597 1 0.321429 0.107143 0 55.845 1.01845e-07 
612 1 0.464286 0.0357143 0 55.845 5.62533e-08 
611 1 0.428571 0 0 55.845 7.44781e-08 
610 1 0.464286 0.107143 0 55.845 5.78661e-08 
609 1 0.428571 0.0714286 0 55.845 -2.05922e-08 
608 1 0.392857 0.0357143 0 55.845 3.39069e-10 
341 1 0.392871 0.0714524 0.208648 55.845 1.69132e-07 
343 1 0.428533 0.107174 0.208632 55.845 3.34248e-07 
348 1 0.392876 8.79656e-05 0.208606 55.845 -9.58289e-08 
350 1 0.428646 0.0357344 0.208632 55.845 1.58169e-07 
352 1 0.464286 0.0714971 0.20849 55.845 2.49991e-07 
355 1 0.464242 1.93498e-05 0.208587 55.845 3.40981e-08 
443 1 0.392915 0.0715651 0.125339 55.845 -4.8163e-07 
444 1 0.392968 0.107164 0.166576 55.845 4.57658e-07 
445 1 0.428623 0.107045 0.125268 55.845 -3.02031e-07 
604 1 0.392857 0.107143 0 55.845 1.09232e-07 
450 1 0.392873 -6.21301e-06 0.125364 55.845 -4.66764e-07 
451 1 0.392875 0.035792 0.166458 55.845 6.05495e-07 
452 1 0.428584 0.035643 0.125313 55.845 -4.24503e-07 
453 1 0.428632 0.071408 0.166575 55.845 3.7655e-07 
454 1 0.464298 0.0713929 0.125205 55.845 -2.75022e-07 
455 1 0.464329 0.107174 0.166582 55.845 3.00072e-07 
456 1 0.428622 0.000105753 0.166705 55.845 4.76227e-07 
457 1 0.464253 8.4876e-06 0.125338 55.845 -3.7158e-07 
458 1 0.464323 0.0357983 0.166538 55.845 4.18192e-07 
545 1 0.392857 0.0714286 0.0416667 55.845 4.92964e-07 
546 1 0.392832 0.107203 0.0844207 55.845 -5.75934e-07 
547 1 0.428571 0.107143 0.0416667 55.845 6.3426e-07 
552 1 0.392857 0 0.0416667 55.845 6.41356e-07 
553 1 0.392804 0.035779 0.0844411 55.845 -6.56505e-07 
554 1 0.428571 0.0357143 0.0416667 55.845 6.25248e-07 
555 1 0.428537 0.0714463 0.0843514 55.845 -7.06277e-07 
556 1 0.464286 0.0714286 0.0416667 55.845 6.84753e-07 
557 1 0.464339 0.107192 0.0844954 55.845 -6.81337e-07 
558 1 0.428612 2.51835e-05 0.0844091 55.845 -6.35795e-07 
559 1 0.464286 0 0.0416667 55.845 7.17472e-07 
560 1 0.464321 0.0356953 0.0844201 55.845 -7.15947e-07 
255 1 -6.67537e-07 0.178616 0.208687 55.845 4.39999e-07 
257 1 0.0357194 0.214371 0.208631 55.845 3.55489e-07 
261 1 0.0356642 0.142919 0.208803 55.845 3.30672e-07 
263 1 0.0713699 0.178577 0.208612 55.845 1.71694e-07 
265 1 0.107142 0.214247 0.208714 55.845 1.87795e-07 
273 1 0.107098 0.142966 0.208736 55.845 1.06332e-07 
357 1 3.58123e-05 0.178666 0.125338 55.845 -2.6008e-07 
358 1 2.48232e-05 0.214325 0.166734 55.845 1.28153e-07 
359 1 0.0356842 0.214279 0.125417 55.845 -1.7305e-07 
360 1 0.0356976 0.250058 0.166573 55.845 1.6577e-07 
362 1 -1.02911e-05 0.142882 0.166428 55.845 1.44014e-07 
363 1 0.0356741 0.142878 0.125314 55.845 -3.65291e-07 
364 1 0.0356727 0.178524 0.166577 55.845 2.52279e-07 
365 1 0.0714177 0.178579 0.125442 55.845 -2.80279e-07 
366 1 0.0713758 0.214315 0.166608 55.845 3.31834e-07 
367 1 0.107096 0.214343 0.125321 55.845 -2.66071e-07 
368 1 0.107193 0.249977 0.166423 55.845 3.19366e-07 
374 1 0.0713857 0.142855 0.166648 55.845 3.14729e-07 
375 1 0.107123 0.142871 0.125353 55.845 -3.73842e-07 
376 1 0.107219 0.178542 0.166622 55.845 4.53537e-07 
459 1 0 0.178571 0.0416667 55.845 4.61815e-07 
460 1 0.000107792 0.214303 0.0846373 55.845 -9.0564e-07 
461 1 0.0357143 0.214286 0.0416667 55.845 7.41491e-07 
462 1 0.0357269 0.249987 0.0843372 55.845 -7.83368e-07 
464 1 4.39681e-05 0.142751 0.0845031 55.845 -9.47176e-07 
465 1 0.0357143 0.142857 0.0416667 55.845 5.05764e-07 
466 1 0.0356759 0.178642 0.0842676 55.845 -8.32191e-07 
467 1 0.0714286 0.178571 0.0416667 55.845 6.63841e-07 
468 1 0.0714153 0.214247 0.0845256 55.845 -6.59932e-07 
469 1 0.107143 0.214286 0.0416667 55.845 7.52629e-07 
470 1 0.107144 0.250076 0.0843831 55.845 -9.23044e-07 
476 1 0.0713237 0.142937 0.0844121 55.845 -6.51677e-07 
477 1 0.107143 0.142857 0.0416667 55.845 6.78924e-07 
478 1 0.107137 0.178618 0.0844548 55.845 -5.08345e-07 
561 1 0 0.214286 0 55.845 4.74463e-09 
562 1 0.0357143 0.25 0 55.845 1.34338e-07 
563 1 0 0.142857 0 55.845 -5.46974e-08 
564 1 0.0357143 0.178571 0 55.845 1.06289e-08 
565 1 0.0714286 0.214286 0 55.845 1.46979e-07 
566 1 0.107143 0.25 0 55.845 -8.54411e-08 
569 1 0.0714286 0.142857 0 55.845 2.97565e-08 
570 1 0.107143 0.178571 0 55.845 2.77461e-07 
275 1 0.142901 0.178556 0.208693 55.845 2.02409e-07 
277 1 0.178559 0.214367 0.208633 55.845 4.55563e-07 
287 1 0.178529 0.142846 0.208522 55.845 3.75983e-07 
289 1 0.214204 0.178604 0.208622 55.845 5.2003e-07 
291 1 0.250003 0.214356 0.208545 55.845 2.94736e-07 
301 1 0.249982 0.142862 0.208739 55.845 5.05422e-07 
377 1 0.142866 0.178582 0.125273 55.845 -2.23239e-07 
378 1 0.14282 0.214204 0.166546 55.845 4.17746e-07 
379 1 0.178563 0.214216 0.125374 55.845 -1.78787e-07 
388 1 0.142793 0.142828 0.166544 55.845 4.07526e-07 
389 1 0.178573 0.142792 0.125435 55.845 -7.86084e-08 
390 1 0.178531 0.178552 0.166553 55.845 3.19563e-07 
391 1 0.214314 0.178596 0.125329 55.845 -8.95129e-08 
392 1 0.214267 0.214392 0.166486 55.845 2.94879e-07 
393 1 0.249933 0.214276 0.125423 55.845 -2.02707e-07 
402 1 0.214356 0.142902 0.166553 55.845 2.23774e-07 
403 1 0.250087 0.1428 0.125242 55.845 -1.84137e-07 
404 1 0.250064 0.178571 0.166732 55.845 2.42693e-07 
479 1 0.142857 0.178571 0.0416667 55.845 8.16293e-07 
480 1 0.142917 0.214277 0.0844082 55.845 -7.2953e-07 
481 1 0.178571 0.214286 0.0416667 55.845 7.20854e-07 
490 1 0.142883 0.142917 0.0844047 55.845 -4.74793e-07 
491 1 0.178571 0.142857 0.0416667 55.845 8.73581e-07 
492 1 0.178535 0.178581 0.0845263 55.845 -7.3146e-07 
493 1 0.214286 0.178571 0.0416667 55.845 7.443e-07 
494 1 0.214252 0.214304 0.0842198 55.845 -7.71359e-07 
495 1 0.25 0.214286 0.0416667 55.845 7.60051e-07 
504 1 0.214293 0.142826 0.0843788 55.845 -8.38199e-07 
505 1 0.25 0.142857 0.0416667 55.845 5.74426e-07 
506 1 0.250051 0.178459 0.0843861 55.845 -8.00828e-07 
571 1 0.142857 0.214286 0 55.845 -2.59485e-09 
576 1 0.142857 0.142857 0 55.845 1.5357e-07 
577 1 0.178571 0.178571 0 55.845 1.30523e-07 
578 1 0.214286 0.214286 0 55.845 1.27439e-08 
583 1 0.214286 0.142857 0 55.845 -2.48397e-08 
584 1 0.25 0.178571 0 55.845 1.99982e-08 
303 1 0.285696 0.178524 0.208567 55.845 4.06038e-07 
305 1 0.321465 0.214373 0.208484 55.845 2.30571e-07 
315 1 0.321353 0.142818 0.208496 55.845 2.33388e-07 
317 1 0.357141 0.178589 0.208586 55.845 1.80484e-07 
405 1 0.285719 0.178589 0.125369 55.845 -2.83585e-07 
406 1 0.285766 0.214321 0.166545 55.845 3.28629e-07 
407 1 0.321424 0.214295 0.125136 55.845 -3.40653e-07 
416 1 0.285746 0.142913 0.166623 55.845 2.51415e-07 
417 1 0.321492 0.142919 0.1254 55.845 -3.09149e-07 
418 1 0.321474 0.178688 0.166509 55.845 3.71315e-07 
419 1 0.357199 0.17861 0.12539 55.845 -2.97391e-07 
420 1 0.357125 0.214374 0.166546 55.845 2.77127e-07 
432 1 0.357202 0.142842 0.166684 55.845 4.62398e-07 
507 1 0.285714 0.178571 0.0416667 55.845 5.45743e-07 
508 1 0.285676 0.214302 0.084497 55.845 -5.89878e-07 
509 1 0.321429 0.214286 0.0416667 55.845 6.37864e-07 
518 1 0.285729 0.142851 0.0845867 55.845 -7.70904e-07 
519 1 0.321429 0.142857 0.0416667 55.845 5.4802e-07 
520 1 0.321449 0.178513 0.0844187 55.845 -6.36054e-07 
521 1 0.357143 0.178571 0.0416667 55.845 6.74831e-07 
522 1 0.357208 0.21429 0.0843705 55.845 -8.53754e-07 
534 1 0.357124 0.14292 0.0844579 55.845 -4.97342e-07 
585 1 0.285714 0.214286 0 55.845 1.41118e-07 
590 1 0.285714 0.142857 0 55.845 -4.24369e-08 
591 1 0.321429 0.178571 0 55.845 1.13216e-07 
592 1 0.357143 0.214286 0 55.845 -4.91961e-08 
598 1 0.357143 0.142857 0 55.845 2.00578e-07 
319 1 0.392795 0.214298 0.208469 55.845 3.63664e-07 
321 1 0.428542 0.249938 0.20844 55.845 5.33802e-07 
331 1 0.392883 0.142835 0.208659 55.845 1.20775e-07 
333 1 0.428576 0.178573 0.208664 55.845 3.97013e-07 
335 1 0.464283 0.214241 0.208595 55.845 4.73555e-07 
345 1 0.464257 0.142849 0.208654 55.845 4.27576e-07 
606 1 0.464286 0.178571 0 55.845 7.31697e-08 
421 1 0.392867 0.214328 0.125408 55.845 -1.90069e-07 
422 1 0.392913 0.250091 0.166467 55.845 1.63949e-07 
423 1 0.428581 0.250068 0.125128 55.845 4.06234e-08 
433 1 0.39289 0.142841 0.125345 55.845 -2.23433e-07 
434 1 0.392813 0.178529 0.1666 55.845 3.27791e-07 
435 1 0.428532 0.178503 0.12556 55.845 -2.82699e-08 
436 1 0.428549 0.214244 0.166534 55.845 1.27075e-07 
437 1 0.464311 0.214278 0.125367 55.845 2.67747e-08 
605 1 0.428571 0.142857 0 55.845 1.59357e-07 
446 1 0.428549 0.142832 0.166701 55.845 3.19666e-07 
447 1 0.464234 0.142823 0.125392 55.845 -1.91502e-07 
448 1 0.464183 0.178495 0.166603 55.845 1.76663e-07 
523 1 0.392857 0.214286 0.0416667 55.845 6.93967e-07 
524 1 0.392897 0.24998 0.0843158 55.845 -1.16194e-06 
525 1 0.428571 0.25 0.0416667 55.845 8.20512e-07 
535 1 0.392857 0.142857 0.0416667 55.845 8.08847e-07 
536 1 0.392881 0.178669 0.0843839 55.845 -6.4094e-07 
537 1 0.428571 0.178571 0.0416667 55.845 9.01185e-07 
538 1 0.428622 0.214207 0.084483 55.845 -9.06523e-07 
539 1 0.464286 0.214286 0.0416667 55.845 8.6646e-07 
548 1 0.42848 0.142834 0.0845331 55.845 -6.46782e-07 
549 1 0.464286 0.142857 0.0416667 55.845 6.35679e-07 
550 1 0.464201 0.178536 0.0844682 55.845 -8.53509e-07 
593 1 0.392857 0.25 0 55.845 -2.13319e-07 
599 1 0.392857 0.178571 0 55.845 1.91461e-07 
600 1 0.428571 0.214286 0 55.845 3.96303e-08 
3 1 -5.19243e-06 0.107086 0.460621 55.845 -3.43427e-08 
7 1 5.59539e-05 0.0356472 0.460544 55.845 5.56245e-08 
8 1 0.0357538 0.0713876 0.460571 55.845 1.07903e-07 
9 1 0.071464 0.107131 0.460716 55.845 1.35677e-07 
13 1 0.0357779 -9.28241e-06 0.460529 55.845 5.08806e-08 
14 1 0.0714818 0.0357482 0.460649 55.845 1.40157e-07 
15 1 0.107108 0.0715017 0.460801 55.845 1.3538e-07 
20 1 0.107033 -3.71668e-05 0.460743 55.845 1.32578e-07 
55 1 -6.86233e-05 0.107192 0.37747 55.845 -1.40963e-07 
63 1 4.7223e-05 0.0357045 0.377348 55.845 2.63528e-07 
64 1 4.95641e-05 0.0713229 0.418839 55.845 3.66683e-07 
65 1 0.0358062 0.0714981 0.377389 55.845 2.09049e-07 
66 1 0.0357971 0.107085 0.418991 55.845 3.56724e-07 
67 1 0.0713906 0.107108 0.377363 55.845 2.64907e-07 
74 1 4.88099e-06 -1.41259e-05 0.418913 55.845 3.13895e-08 
75 1 0.0356928 7.59089e-05 0.377219 55.845 4.06674e-07 
76 1 0.035803 0.035699 0.418964 55.845 7.00812e-08 
77 1 0.0714712 0.0356638 0.377433 55.845 4.41211e-07 
78 1 0.0714016 0.0714029 0.419078 55.845 -1.16873e-08 
79 1 0.107161 0.0713895 0.377473 55.845 6.22338e-07 
80 1 0.107132 0.107136 0.419073 55.845 6.93282e-08 
88 1 0.0714187 6.43646e-05 0.418955 55.845 1.19422e-07 
89 1 0.10718 -8.76166e-05 0.377486 55.845 2.71412e-07 
90 1 0.107159 0.0357615 0.418988 55.845 -1.47428e-08 
157 1 -5.28207e-05 0.107159 0.293989 55.845 -1.54638e-07 
165 1 5.50713e-05 0.0357277 0.293874 55.845 1.37261e-07 
166 1 -3.76552e-06 0.0713545 0.335741 55.845 -5.93054e-07 
167 1 0.0356661 0.0714782 0.293898 55.845 5.38815e-08 
168 1 0.0356897 0.107137 0.335783 55.845 -2.95662e-07 
169 1 0.0713788 0.107172 0.29378 55.845 1.87308e-07 
176 1 -1.49057e-05 -1.42315e-05 0.335682 55.845 -5.62135e-07 
177 1 0.0357085 8.48409e-05 0.293943 55.845 3.50414e-07 
178 1 0.0357276 0.035785 0.335757 55.845 -7.61291e-07 
179 1 0.0714222 0.0356854 0.294016 55.845 2.6822e-07 
180 1 0.0714701 0.0713842 0.335911 55.845 -5.35898e-07 
181 1 0.107166 0.0714234 0.29393 55.845 4.77687e-07 
182 1 0.107037 0.10716 0.335955 55.845 -5.04101e-07 
190 1 0.071445 1.12558e-05 0.33571 55.845 -6.43928e-07 
191 1 0.107073 -2.72869e-05 0.293946 55.845 9.23483e-08 
192 1 0.10711 0.0356656 0.335854 55.845 -7.07452e-07 
268 1 2.89292e-05 0.071464 0.25143 55.845 -5.16078e-07 
270 1 0.0356297 0.107159 0.251433 55.845 -1.45993e-07 
278 1 -0.000107855 -3.51973e-05 0.251481 55.845 -3.06989e-07 
280 1 0.035752 0.0356941 0.251305 55.845 -4.56091e-07 
282 1 0.0713952 0.071408 0.251487 55.845 -2.32851e-07 
284 1 0.107131 0.1072 0.251487 55.845 -6.15717e-08 
292 1 0.0714478 -2.58307e-05 0.251404 55.845 -4.26738e-07 
294 1 0.107105 0.0356862 0.251558 55.845 -2.68804e-07 
16 1 0.14286 0.107154 0.460651 55.845 2.30861e-07 
21 1 0.142816 0.0356172 0.460746 55.845 7.04894e-08 
22 1 0.178615 0.0714393 0.460673 55.845 1.58965e-07 
23 1 0.214279 0.107135 0.460616 55.845 1.52245e-07 
27 1 0.178587 1.82175e-05 0.460824 55.845 1.30784e-09 
28 1 0.214348 0.0357097 0.460759 55.845 6.30341e-08 
29 1 0.250037 0.0714984 0.460462 55.845 1.10912e-07 
81 1 0.142818 0.107153 0.377481 55.845 6.12576e-07 
91 1 0.1429 0.0357548 0.377564 55.845 5.42344e-07 
92 1 0.142887 0.0713793 0.419108 55.845 -7.89316e-08 
93 1 0.178623 0.0714675 0.377572 55.845 5.7623e-07 
94 1 0.178551 0.107042 0.418877 55.845 -2.32473e-08 
95 1 0.21425 0.107107 0.377462 55.845 4.60886e-07 
102 1 0.142896 -2.83356e-05 0.419124 55.845 2.24601e-07 
103 1 0.178547 -1.31595e-05 0.377551 55.845 3.39942e-07 
104 1 0.178533 0.0358034 0.419189 55.845 4.20747e-08 
105 1 0.214253 0.0357372 0.377693 55.845 3.5445e-07 
106 1 0.214329 0.0714627 0.419004 55.845 3.74515e-08 
107 1 0.250013 0.071442 0.377584 55.845 2.26416e-07 
108 1 0.250053 0.1072 0.418912 55.845 1.77679e-07 
118 1 0.214224 2.49163e-05 0.419098 55.845 2.04264e-07 
120 1 0.249981 0.0357408 0.419035 55.845 2.03671e-07 
183 1 0.14281 0.107086 0.293943 55.845 3.15249e-07 
193 1 0.142816 0.0357221 0.294121 55.845 4.13823e-07 
194 1 0.142846 0.0714053 0.335958 55.845 -6.64958e-07 
195 1 0.178595 0.0713993 0.294101 55.845 3.53103e-07 
196 1 0.178514 0.107178 0.335702 55.845 -7.47007e-07 
197 1 0.214291 0.107127 0.293893 55.845 2.59912e-07 
204 1 0.142792 2.09721e-05 0.335956 55.845 -6.08287e-07 
205 1 0.178519 1.89032e-05 0.294121 55.845 2.06358e-07 
206 1 0.178611 0.0357806 0.335903 55.845 -6.52495e-07 
207 1 0.2143 0.0358007 0.293853 55.845 2.07405e-07 
208 1 0.214289 0.0714687 0.335955 55.845 -7.17305e-07 
209 1 0.25003 0.0714442 0.294127 55.845 3.07192e-08 
210 1 0.250044 0.107239 0.335807 55.845 -4.61258e-07 
220 1 0.214207 4.03626e-05 0.335894 55.845 -4.73664e-07 
222 1 0.249937 0.0358467 0.335859 55.845 -6.05774e-07 
296 1 0.14292 0.071455 0.251509 55.845 -1.74658e-07 
298 1 0.17858 0.107177 0.251418 55.845 -3.02887e-07 
306 1 0.142902 2.63357e-05 0.251422 55.845 -2.56944e-07 
308 1 0.178542 0.0357473 0.251387 55.845 -3.26677e-07 
310 1 0.214263 0.0714385 0.251344 55.845 -4.2397e-07 
312 1 0.250028 0.107096 0.251437 55.845 -2.81576e-07 
322 1 0.214184 2.64493e-05 0.251339 55.845 -2.06601e-07 
324 1 0.249939 0.0357579 0.251432 55.845 -3.64795e-07 
30 1 0.285694 0.107163 0.460715 55.845 5.49056e-08 
35 1 0.250085 5.40351e-05 0.46064 55.845 8.36983e-09 
36 1 0.285693 0.0357464 0.460714 55.845 1.43721e-07 
37 1 0.321458 0.0713903 0.460629 55.845 9.96292e-08 
38 1 0.357186 0.107176 0.46053 55.845 1.61782e-07 
42 1 0.321374 9.42693e-05 0.460822 55.845 7.73234e-08 
43 1 0.357109 0.0358248 0.460679 55.845 8.30805e-08 
109 1 0.285632 0.107156 0.377597 55.845 7.58182e-08 
119 1 0.249923 9.52047e-05 0.377469 55.845 2.83841e-07 
121 1 0.28571 0.035728 0.377497 55.845 7.88569e-08 
122 1 0.28571 0.0714181 0.418939 55.845 2.67669e-07 
123 1 0.321365 0.0714779 0.377529 55.845 4.15631e-08 
124 1 0.321418 0.107221 0.419029 55.845 3.8349e-07 
125 1 0.357197 0.107171 0.377628 55.845 8.09613e-08 
133 1 0.321439 4.4865e-05 0.377579 55.845 1.47363e-07 
134 1 0.321432 0.0357932 0.418962 55.845 2.29048e-07 
135 1 0.35712 0.0357629 0.377565 55.845 1.59695e-07 
136 1 0.357169 0.0714833 0.41905 55.845 2.03443e-07 
211 1 0.285747 0.107128 0.29418 55.845 2.58146e-08 
221 1 0.249989 0.000106852 0.293989 55.845 1.6869e-07 
223 1 0.285667 0.0356964 0.293902 55.845 -6.50795e-08 
224 1 0.285736 0.0714159 0.335847 55.845 -4.30562e-07 
225 1 0.321465 0.0715607 0.294058 55.845 -1.38153e-07 
226 1 0.321357 0.107217 0.335856 55.845 -1.6331e-07 
227 1 0.357192 0.107197 0.294065 55.845 -1.498e-07 
235 1 0.321452 4.25715e-05 0.29399 55.845 -8.80819e-08 
236 1 0.321404 0.0357762 0.335852 55.845 -3.06545e-07 
237 1 0.357051 0.0357271 0.294076 55.845 -3.74985e-08 
238 1 0.357149 0.071492 0.335913 55.845 -1.53834e-07 
326 1 0.285748 0.0714407 0.251371 55.845 -2.41458e-07 
328 1 0.321455 0.107187 0.251539 55.845 1.27511e-08 
338 1 0.321443 0.0357796 0.251568 55.845 -4.88934e-08 
340 1 0.357165 0.0714709 0.25138 55.845 1.91379e-07 
44 1 0.392843 0.0714548 0.460649 55.845 1.34952e-07 
45 1 0.428543 0.107179 0.460713 55.845 1.46297e-07 
47 1 0.39283 2.3952e-05 0.460713 55.845 1.2964e-07 
48 1 0.428508 0.0358611 0.460653 55.845 1.70906e-07 
49 1 0.464296 0.0714708 0.460661 55.845 2.21427e-07 
50 1 0.464279 -2.54531e-05 0.460672 55.845 2.46465e-07 
137 1 0.392864 0.0713768 0.377435 55.845 3.26244e-07 
138 1 0.392946 0.107139 0.418976 55.845 2.41947e-07 
139 1 0.428657 0.107033 0.377492 55.845 3.56814e-07 
144 1 0.392763 2.82649e-06 0.37762 55.845 2.63027e-07 
145 1 0.392823 0.035643 0.418967 55.845 9.91616e-08 
146 1 0.428544 0.0356575 0.377341 55.845 4.843e-07 
147 1 0.428565 0.0714807 0.418997 55.845 1.25019e-07 
148 1 0.464317 0.071392 0.377643 55.845 4.11844e-07 
149 1 0.464275 0.107074 0.419076 55.845 2.25563e-07 
150 1 0.428535 0.000106318 0.418946 55.845 1.43989e-08 
151 1 0.464272 -8.45946e-05 0.377456 55.845 4.98117e-07 
152 1 0.464275 0.035661 0.419019 55.845 3.85932e-09 
239 1 0.392877 0.0714492 0.294027 55.845 1.63914e-07 
240 1 0.392919 0.107165 0.336063 55.845 -3.23403e-07 
241 1 0.428569 0.107097 0.294081 55.845 1.5916e-07 
246 1 0.392786 8.28831e-05 0.294029 55.845 -1.07914e-07 
247 1 0.392796 0.0357469 0.335736 55.845 -3.77951e-07 
248 1 0.428579 0.0357127 0.294022 55.845 1.37409e-07 
249 1 0.428563 0.0714303 0.335823 55.845 -3.40087e-07 
250 1 0.464296 0.071392 0.293842 55.845 1.69756e-07 
251 1 0.464322 0.107099 0.335801 55.845 -3.19195e-07 
252 1 0.428526 -1.06348e-05 0.335746 55.845 -5.97545e-07 
253 1 0.464332 -1.94361e-05 0.294108 55.845 -7.12188e-09 
254 1 0.464316 0.0356747 0.335907 55.845 -5.83273e-07 
342 1 0.392882 0.107156 0.251592 55.845 3.9802e-08 
349 1 0.392883 0.0357563 0.251394 55.845 1.01439e-07 
351 1 0.428582 0.071503 0.251291 55.845 2.77501e-08 
353 1 0.464378 0.107073 0.251554 55.845 -1.30111e-08 
354 1 0.428571 6.08778e-06 0.251416 55.845 -6.21023e-08 
356 1 0.464386 0.0357272 0.251341 55.845 -5.00288e-08 
1 1 0.000127313 0.178569 0.460498 55.845 -1.44378e-07 
2 1 0.0356541 0.214266 0.460642 55.845 5.43699e-08 
4 1 0.0356841 0.142828 0.460595 55.845 -1.07372e-07 
5 1 0.0714681 0.178524 0.46066 55.845 1.07685e-07 
6 1 0.107115 0.214267 0.460705 55.845 1.97612e-07 
10 1 0.107192 0.142853 0.460591 55.845 3.04994e-07 
51 1 5.84178e-06 0.178668 0.377538 55.845 7.17771e-08 
52 1 3.05668e-05 0.214388 0.419067 55.845 2.28637e-07 
53 1 0.0357304 0.21427 0.377365 55.845 1.57248e-07 
54 1 0.0356806 0.249949 0.418998 55.845 7.85023e-08 
56 1 3.12644e-06 0.142843 0.418937 55.845 5.23393e-07 
57 1 0.0357279 0.142778 0.377563 55.845 5.02556e-08 
58 1 0.0357196 0.178594 0.418987 55.845 3.59421e-07 
59 1 0.0713357 0.178626 0.37748 55.845 7.64921e-08 
60 1 0.0713702 0.2143 0.419095 55.845 2.49249e-07 
61 1 0.106993 0.214337 0.377559 55.845 3.3001e-07 
62 1 0.107062 0.250076 0.419033 55.845 1.49737e-08 
68 1 0.0714231 0.142896 0.418946 55.845 2.67009e-07 
69 1 0.107108 0.142927 0.37752 55.845 3.46983e-07 
70 1 0.107168 0.178628 0.418939 55.845 1.38009e-07 
153 1 9.81804e-06 0.178536 0.294078 55.845 2.0586e-07 
154 1 -8.06963e-05 0.214257 0.335729 55.845 -3.69586e-07 
155 1 0.0356885 0.214405 0.294039 55.845 5.02869e-08 
156 1 0.0356939 0.250116 0.335885 55.845 -7.78766e-07 
158 1 -0.000143427 0.142868 0.335831 55.845 -4.24594e-08 
159 1 0.0356669 0.142892 0.294079 55.845 4.84221e-08 
160 1 0.0356647 0.178575 0.335764 55.845 -7.84103e-08 
161 1 0.0714011 0.178738 0.294066 55.845 -1.27982e-07 
162 1 0.0713079 0.214355 0.335822 55.845 -4.91672e-07 
163 1 0.107064 0.214369 0.293947 55.845 4.1037e-08 
164 1 0.107146 0.250047 0.335827 55.845 -4.94764e-07 
170 1 0.0714622 0.142843 0.335922 55.845 -2.43057e-07 
171 1 0.107131 0.142909 0.293987 55.845 -1.87307e-08 
172 1 0.107121 0.178551 0.335701 55.845 -4.96817e-07 
256 1 4.10068e-05 0.214291 0.251351 55.845 -1.20816e-07 
258 1 0.0357458 0.250019 0.251306 55.845 -4.39754e-07 
260 1 2.13912e-05 0.142925 0.251539 55.845 -7.62247e-09 
262 1 0.0357285 0.17862 0.251486 55.845 4.0057e-08 
264 1 0.071378 0.214299 0.25143 55.845 -1.56624e-07 
266 1 0.107157 0.250144 0.251363 55.845 -5.88112e-08 
272 1 0.0713367 0.142921 0.251502 55.845 5.23126e-09 
274 1 0.107129 0.178657 0.25145 55.845 -1.70691e-07 
11 1 0.142866 0.178621 0.460625 55.845 3.04458e-07 
12 1 0.178591 0.214263 0.460607 55.845 1.10401e-07 
17 1 0.178525 0.14284 0.46056 55.845 3.15294e-07 
18 1 0.214279 0.178598 0.460638 55.845 1.45498e-07 
19 1 0.249924 0.214232 0.460759 55.845 1.31213e-07 
24 1 0.249914 0.142781 0.460717 55.845 1.60954e-09 
71 1 0.14288 0.178524 0.377441 55.845 4.06744e-07 
72 1 0.142789 0.214209 0.418881 55.845 7.66684e-08 
73 1 0.178501 0.21425 0.37728 55.845 5.35995e-07 
82 1 0.142873 0.142842 0.418955 55.845 1.26423e-08 
83 1 0.17856 0.142805 0.37743 55.845 5.16974e-07 
84 1 0.178506 0.178619 0.418891 55.845 -5.12779e-09 
85 1 0.21426 0.178525 0.37746 55.845 5.10655e-07 
86 1 0.214198 0.214261 0.419025 55.845 1.07457e-07 
87 1 0.249975 0.214342 0.377461 55.845 2.55986e-07 
96 1 0.21423 0.142808 0.418955 55.845 8.00806e-08 
97 1 0.249976 0.142878 0.3776 55.845 3.36176e-07 
98 1 0.250051 0.178629 0.419004 55.845 2.04205e-07 
173 1 0.142853 0.178499 0.293959 55.845 8.09839e-08 
174 1 0.142747 0.214163 0.335806 55.845 -4.90833e-07 
175 1 0.17854 0.214242 0.293958 55.845 3.41824e-07 
184 1 0.142902 0.142805 0.335748 55.845 -7.08939e-07 
185 1 0.178581 0.142877 0.293782 55.845 2.08224e-07 
186 1 0.178554 0.178481 0.335687 55.845 -6.35523e-07 
187 1 0.214317 0.178574 0.294092 55.845 3.41758e-07 
188 1 0.214205 0.214171 0.335782 55.845 -5.15477e-07 
189 1 0.249931 0.214342 0.293926 55.845 6.74981e-08 
198 1 0.214268 0.142819 0.335766 55.845 -5.53731e-07 
199 1 0.250038 0.142877 0.294102 55.845 3.11628e-07 
200 1 0.250002 0.178598 0.335918 55.845 -3.56443e-07 
276 1 0.142857 0.214292 0.251591 55.845 -3.02971e-08 
286 1 0.142782 0.142807 0.251464 55.845 -2.54402e-07 
288 1 0.178631 0.178608 0.25145 55.845 -1.66965e-07 
290 1 0.214333 0.214345 0.251393 55.845 -1.79437e-07 
300 1 0.214285 0.142821 0.251572 55.845 -2.26975e-07 
302 1 0.250034 0.178573 0.251466 55.845 -8.76353e-08 
25 1 0.285687 0.178473 0.460733 55.845 -5.20011e-08 
26 1 0.321315 0.214374 0.460642 55.845 3.02072e-08 
31 1 0.321379 0.142906 0.460683 55.845 -2.48464e-08 
32 1 0.357017 0.178482 0.46072 55.845 1.6412e-07 
99 1 0.285607 0.178623 0.377514 55.845 1.10611e-07 
100 1 0.285731 0.214298 0.419049 55.845 2.99865e-07 
101 1 0.321432 0.214264 0.377529 55.845 1.57626e-07 
110 1 0.285694 0.142944 0.41919 55.845 3.15592e-07 
111 1 0.321415 0.142862 0.37752 55.845 3.5054e-08 
112 1 0.321376 0.178571 0.419 55.845 3.86661e-07 
113 1 0.357029 0.178483 0.377636 55.845 1.60759e-07 
114 1 0.357123 0.214237 0.418922 55.845 2.35899e-07 
126 1 0.357112 0.142849 0.418959 55.845 3.56689e-07 
201 1 0.28568 0.178575 0.294111 55.845 1.12875e-07 
202 1 0.28569 0.214308 0.335896 55.845 -3.89949e-07 
203 1 0.3214 0.214299 0.294086 55.845 2.79431e-08 
212 1 0.28566 0.142924 0.335945 55.845 -1.56671e-07 
213 1 0.321438 0.142819 0.293978 55.845 -8.45169e-08 
214 1 0.321372 0.178618 0.335767 55.845 -1.68219e-07 
215 1 0.357147 0.178489 0.293919 55.845 -8.74979e-08 
216 1 0.357161 0.214136 0.336012 55.845 -2.94881e-07 