ITEM: TIMESTEP
4000
ITEM: NUMBER OF ATOMS
5880
ITEM: BOX BOUNDS pp pp ff
-28.0098 28.0098
-28.0098 28.0098
0 34.092
ITEM: ATOMS id type xs ys zs mass q 
259 1 2.0344e-06 0.107134 0.209093 55.845 2.37689e-07 
267 1 3.07891e-05 0.0357032 0.209172 55.845 4.5562e-07 
269 1 0.0356469 0.0713811 0.209191 55.845 5.72567e-07 
271 1 0.0713552 0.107107 0.209145 55.845 2.68427e-07 
279 1 0.0357263 -4.95514e-05 0.20914 55.845 2.10755e-07 
281 1 0.0714987 0.0356532 0.209206 55.845 4.5181e-07 
283 1 0.107046 0.0714844 0.209098 55.845 6.78831e-07 
293 1 0.107124 -5.78258e-05 0.209187 55.845 5.00337e-07 
361 1 -2.85539e-05 0.107055 0.125841 55.845 1.24757e-07 
369 1 1.32801e-05 0.035604 0.125876 55.845 7.74321e-08 
370 1 -3.84291e-06 0.0713794 0.16728 55.845 -3.08529e-08 
371 1 0.0357036 0.0713357 0.125749 55.845 2.79163e-07 
372 1 0.0356724 0.107096 0.167447 55.845 6.35384e-08 
373 1 0.0714168 0.107185 0.126072 55.845 1.76192e-07 
380 1 1.09804e-05 -3.14211e-05 0.167589 55.845 -2.80979e-07 
381 1 0.0356257 7.21616e-05 0.125908 55.845 9.08998e-09 
382 1 0.0356874 0.0356502 0.167438 55.845 -7.75085e-08 
383 1 0.0714823 0.0357065 0.125894 55.845 1.83598e-07 
384 1 0.0714022 0.0713349 0.16739 55.845 -8.9758e-08 
385 1 0.107151 0.0714477 0.126084 55.845 2.48886e-07 
386 1 0.107152 0.107168 0.167485 55.845 3.85963e-08 
394 1 0.0714465 -2.57209e-05 0.167498 55.845 -2.55929e-07 
395 1 0.107142 -4.84005e-05 0.12589 55.845 1.60548e-07 
396 1 0.10724 0.0356484 0.167568 55.845 2.64289e-08 
463 1 0 0.107143 0.0416667 55.845 -1.36183e-08 
471 1 0 0.0357143 0.0416667 55.845 -8.97609e-08 
472 1 -4.45734e-05 0.0714278 0.084312 55.845 9.37441e-09 
473 1 0.0357143 0.0714286 0.0416667 55.845 3.12473e-08 
474 1 0.0357764 0.107081 0.0845043 55.845 -3.34807e-07 
475 1 0.0714286 0.107143 0.0416667 55.845 4.94532e-08 
482 1 -1.46722e-06 -4.54392e-05 0.0844069 55.845 -1.45694e-07 
483 1 0.0357143 0 0.0416667 55.845 -2.56931e-08 
484 1 0.0356673 0.035634 0.0843796 55.845 -2.45823e-07 
485 1 0.0714286 0.0357143 0.0416667 55.845 -1.69599e-08 
486 1 0.0714897 0.0714129 0.0845037 55.845 -1.05691e-07 
487 1 0.107143 0.0714286 0.0416667 55.845 -1.15611e-07 
488 1 0.107169 0.107084 0.0843999 55.845 -3.38824e-07 
496 1 0.0713681 3.54955e-05 0.0845416 55.845 -1.8094e-07 
497 1 0.107143 0 0.0416667 55.845 -1.48017e-07 
498 1 0.107107 0.0357773 0.0844121 55.845 -1.99451e-07 
567 1 0 0.0714286 0 55.845 1.67421e-07 
568 1 0.0357143 0.107143 0 55.845 3.35315e-08 
572 1 0 0 0 55.845 9.19755e-08 
573 1 0.0357143 0.0357143 0 55.845 2.28676e-07 
574 1 0.0714286 0.0714286 0 55.845 4.58275e-08 
575 1 0.107143 0.107143 0 55.845 7.54097e-08 
579 1 0.0714286 0 0 55.845 -2.58368e-08 
580 1 0.107143 0.0357143 0 55.845 1.0306e-07 
285 1 0.142904 0.107161 0.209118 55.845 5.30224e-07 
295 1 0.142805 0.0357478 0.209165 55.845 7.78184e-07 
297 1 0.178559 0.0713697 0.209199 55.845 8.34617e-07 
299 1 0.214312 0.1071 0.209202 55.845 4.37798e-07 
307 1 0.178465 -6.58344e-05 0.209076 55.845 5.17175e-07 
309 1 0.214267 0.0357418 0.209194 55.845 4.99943e-07 
311 1 0.249991 0.0714106 0.209171 55.845 6.01002e-07 
387 1 0.142882 0.107156 0.125973 55.845 2.52386e-07 
397 1 0.142837 0.0356878 0.126009 55.845 3.29117e-07 
398 1 0.142907 0.0714621 0.167551 55.845 -6.40855e-08 
399 1 0.178554 0.071389 0.125808 55.845 3.07828e-07 
400 1 0.178596 0.107079 0.167447 55.845 -1.52202e-07 
401 1 0.214255 0.107147 0.125904 55.845 1.12436e-07 
408 1 0.142816 -6.55856e-05 0.167407 55.845 -2.47397e-07 
409 1 0.178637 -7.1105e-05 0.125931 55.845 2.18811e-07 
410 1 0.17854 0.0357376 0.16744 55.845 -2.30066e-08 
411 1 0.214229 0.0357549 0.125919 55.845 1.93842e-07 
412 1 0.214277 0.0714314 0.167415 55.845 -5.16938e-08 
413 1 0.249994 0.0714262 0.125869 55.845 3.67594e-08 
414 1 0.250024 0.107097 0.167489 55.845 4.49215e-08 
424 1 0.214202 -1.20027e-05 0.167488 55.845 -3.0944e-07 
426 1 0.250024 0.0357535 0.167488 55.845 4.97985e-08 
489 1 0.142857 0.107143 0.0416667 55.845 -1.90276e-07 
499 1 0.142857 0.0357143 0.0416667 55.845 -1.51358e-07 
500 1 0.142864 0.0714084 0.0844679 55.845 8.3088e-08 
501 1 0.178571 0.0714286 0.0416667 55.845 -1.45136e-07 
502 1 0.178582 0.107137 0.0842661 55.845 -1.63014e-07 
503 1 0.214286 0.107143 0.0416667 55.845 -2.03578e-07 
510 1 0.142907 2.44786e-05 0.0845268 55.845 -1.4406e-07 
511 1 0.178571 0 0.0416667 55.845 -5.38726e-08 
512 1 0.178549 0.0356626 0.0845188 55.845 -6.8473e-08 
513 1 0.214286 0.0357143 0.0416667 55.845 1.1025e-07 
514 1 0.214304 0.0714462 0.0844731 55.845 1.49586e-07 
515 1 0.25 0.0714286 0.0416667 55.845 -6.90387e-08 
516 1 0.249933 0.107069 0.0844181 55.845 -7.20849e-08 
526 1 0.214304 3.69525e-05 0.0845276 55.845 -2.73857e-07 
528 1 0.249989 0.0357328 0.0843611 55.845 -9.3554e-08 
581 1 0.142857 0.0714286 0 55.845 1.52857e-07 
582 1 0.178571 0.107143 0 55.845 1.06792e-07 
586 1 0.142857 0 0 55.845 -7.80422e-09 
587 1 0.178571 0.0357143 0 55.845 2.95088e-07 
588 1 0.214286 0.0714286 0 55.845 3.1985e-07 
589 1 0.25 0.107143 0 55.845 2.52576e-07 
594 1 0.214286 0 0 55.845 1.34757e-07 
595 1 0.25 0.0357143 0 55.845 3.20128e-07 
313 1 0.285739 0.107062 0.209072 55.845 4.95166e-07 
323 1 0.249987 -9.61751e-06 0.209146 55.845 2.46867e-07 
325 1 0.285775 0.0357758 0.209147 55.845 3.08342e-07 
327 1 0.321479 0.071346 0.209127 55.845 4.68416e-07 
329 1 0.357141 0.107145 0.209173 55.845 3.75169e-07 
337 1 0.32142 1.16993e-05 0.209172 55.845 2.36411e-07 
339 1 0.357214 0.0357032 0.209155 55.845 4.02571e-07 
415 1 0.285747 0.107169 0.125872 55.845 -9.77535e-08 
425 1 0.249989 1.98534e-05 0.125968 55.845 2.3702e-07 
427 1 0.285735 0.0356937 0.125832 55.845 1.82403e-07 
428 1 0.285719 0.0713589 0.167454 55.845 3.24232e-08 
429 1 0.3214 0.0713553 0.125888 55.845 1.22264e-07 
430 1 0.321447 0.107064 0.167371 55.845 -2.52709e-07 
431 1 0.357161 0.107087 0.125969 55.845 4.42521e-09 
439 1 0.321485 1.4444e-05 0.125757 55.845 3.11357e-07 
440 1 0.321533 0.0356659 0.167398 55.845 8.26475e-08 
441 1 0.357155 0.0357118 0.125867 55.845 2.59818e-07 
442 1 0.357133 0.0714722 0.167531 55.845 5.2742e-08 
517 1 0.285714 0.107143 0.0416667 55.845 -1.87037e-07 
527 1 0.25 0 0.0416667 55.845 2.13357e-07 
529 1 0.285714 0.0357143 0.0416667 55.845 6.67739e-08 
530 1 0.285684 0.0714523 0.0844663 55.845 3.99905e-08 
531 1 0.321429 0.0714286 0.0416667 55.845 -2.91626e-07 
532 1 0.32139 0.107138 0.084383 55.845 -1.66491e-07 
533 1 0.357143 0.107143 0.0416667 55.845 -2.86698e-07 
603 1 0.357143 0.0714286 0 55.845 1.80466e-07 
541 1 0.321429 0 0.0416667 55.845 1.39203e-08 
542 1 0.321467 0.0357059 0.0842188 55.845 -1.08126e-07 
543 1 0.357143 0.0357143 0.0416667 55.845 -6.36403e-08 
544 1 0.357071 0.0714432 0.0845627 55.845 9.80093e-08 
602 1 0.321429 0.0357143 0 55.845 9.17614e-08 
596 1 0.285714 0.0714286 0 55.845 2.29665e-07 
597 1 0.321429 0.107143 0 55.845 1.45115e-07 
612 1 0.464286 0.0357143 0 55.845 2.02644e-07 
611 1 0.428571 0 0 55.845 1.02585e-07 
610 1 0.464286 0.107143 0 55.845 2.83588e-07 
609 1 0.428571 0.0714286 0 55.845 2.18502e-07 
608 1 0.392857 0.0357143 0 55.845 1.65101e-07 
341 1 0.392896 0.0714868 0.209187 55.845 5.02764e-07 
343 1 0.428565 0.107165 0.209153 55.845 2.66415e-07 
348 1 0.392832 3.62303e-05 0.209156 55.845 2.07987e-07 
350 1 0.428586 0.035694 0.209207 55.845 1.06716e-07 
352 1 0.464345 0.0714915 0.209176 55.845 1.1597e-07 
355 1 0.46423 2.80421e-05 0.209241 55.845 -2.29002e-07 
443 1 0.392865 0.0713275 0.12587 55.845 2.5489e-07 
444 1 0.392806 0.107036 0.167364 55.845 -1.26318e-07 
445 1 0.42858 0.107128 0.126036 55.845 2.23861e-07 
604 1 0.392857 0.107143 0 55.845 2.66508e-07 
450 1 0.392907 4.77543e-06 0.125913 55.845 1.60664e-07 
451 1 0.39297 0.0356879 0.167464 55.845 4.31979e-07 
452 1 0.428632 0.0357103 0.125975 55.845 2.08234e-07 
453 1 0.428626 0.0713696 0.167518 55.845 2.82841e-07 
454 1 0.464261 0.0713643 0.126049 55.845 1.86674e-07 
455 1 0.464235 0.107137 0.167466 55.845 -1.42361e-07 
456 1 0.428603 -5.28043e-05 0.167633 55.845 2.22872e-07 
457 1 0.464269 1.16225e-05 0.126009 55.845 -1.83123e-07 
458 1 0.464324 0.0356446 0.167564 55.845 1.73829e-07 
545 1 0.392857 0.0714286 0.0416667 55.845 -2.18137e-08 
546 1 0.392781 0.107141 0.0845265 55.845 -5.32287e-08 
547 1 0.428571 0.107143 0.0416667 55.845 1.20974e-07 
552 1 0.392857 0 0.0416667 55.845 -1.03442e-07 
553 1 0.392948 0.0357026 0.084498 55.845 1.00004e-07 
554 1 0.428571 0.0357143 0.0416667 55.845 1.55906e-07 
555 1 0.428599 0.0713972 0.0843949 55.845 9.70037e-08 
556 1 0.464286 0.0714286 0.0416667 55.845 2.5055e-07 
557 1 0.464369 0.107124 0.0845956 55.845 -2.24854e-07 
558 1 0.428625 -2.07913e-05 0.0844865 55.845 -5.43199e-08 
559 1 0.464286 0 0.0416667 55.845 -7.83538e-08 
560 1 0.464295 0.0356368 0.0844122 55.845 -2.38195e-07 
255 1 -5.6303e-05 0.178513 0.209258 55.845 4.29863e-07 
257 1 0.0357359 0.214286 0.209137 55.845 4.67803e-07 
261 1 0.0356397 0.142811 0.209196 55.845 9.90002e-08 
263 1 0.0714213 0.178552 0.209221 55.845 3.64222e-07 
265 1 0.107114 0.21432 0.209092 55.845 6.81049e-07 
273 1 0.107108 0.142873 0.209233 55.845 2.62377e-07 
357 1 -4.13045e-06 0.178551 0.125905 55.845 3.46357e-07 
358 1 -1.78954e-05 0.214288 0.167441 55.845 1.3015e-07 
359 1 0.0357201 0.214319 0.125955 55.845 1.18169e-07 
360 1 0.0357422 0.249992 0.167466 55.845 -7.22863e-08 
362 1 5.22707e-05 0.142804 0.167375 55.845 -3.92941e-08 
363 1 0.0356675 0.142862 0.125979 55.845 1.4999e-07 
364 1 0.0357258 0.178621 0.167405 55.845 -4.86142e-08 
365 1 0.071459 0.178576 0.125971 55.845 6.57482e-08 
366 1 0.0714305 0.214318 0.167357 55.845 -2.5155e-07 
367 1 0.107159 0.214275 0.125791 55.845 2.47125e-07 
368 1 0.107189 0.250006 0.167485 55.845 -1.97231e-07 
374 1 0.0714275 0.142795 0.167521 55.845 -2.84449e-07 
375 1 0.107116 0.14288 0.125933 55.845 1.62728e-07 
376 1 0.10718 0.178609 0.167397 55.845 -7.33564e-08 
459 1 0 0.178571 0.0416667 55.845 2.94195e-08 
460 1 4.1205e-05 0.214297 0.0844107 55.845 1.68586e-07 
461 1 0.0357143 0.214286 0.0416667 55.845 -1.58485e-09 
462 1 0.0357787 0.25005 0.0845138 55.845 -1.98606e-07 
464 1 -3.52942e-05 0.142783 0.0845088 55.845 -3.16646e-07 
465 1 0.0357143 0.142857 0.0416667 55.845 5.06898e-08 
466 1 0.0356982 0.178615 0.0844935 55.845 -2.78791e-07 
467 1 0.0714286 0.178571 0.0416667 55.845 -5.13817e-09 
468 1 0.0714636 0.214281 0.0843176 55.845 1.59905e-08 
469 1 0.107143 0.214286 0.0416667 55.845 -5.0359e-08 
470 1 0.107143 0.250036 0.0844043 55.845 -2.4317e-08 
476 1 0.0714748 0.142868 0.084454 55.845 -3.27999e-07 
477 1 0.107143 0.142857 0.0416667 55.845 -7.27342e-08 
478 1 0.107143 0.178546 0.0843833 55.845 -1.69234e-07 
561 1 0 0.214286 0 55.845 2.55062e-07 
562 1 0.0357143 0.25 0 55.845 2.44162e-07 
563 1 0 0.142857 0 55.845 3.976e-08 
564 1 0.0357143 0.178571 0 55.845 1.86809e-07 
565 1 0.0714286 0.214286 0 55.845 3.21147e-07 
566 1 0.107143 0.25 0 55.845 3.51335e-07 
569 1 0.0714286 0.142857 0 55.845 -1.98348e-08 
570 1 0.107143 0.178571 0 55.845 2.44105e-07 
275 1 0.142798 0.178538 0.209223 55.845 6.39823e-07 
277 1 0.178597 0.214275 0.209196 55.845 6.68153e-07 
287 1 0.178531 0.142831 0.209303 55.845 4.0813e-07 
289 1 0.214359 0.178539 0.209185 55.845 5.24431e-07 
291 1 0.249969 0.214286 0.209147 55.845 5.5438e-07 
301 1 0.249986 0.142926 0.209074 55.845 4.07818e-07 
377 1 0.142898 0.178576 0.125964 55.845 3.79077e-07 
378 1 0.142962 0.214328 0.167427 55.845 -1.38404e-07 
379 1 0.178549 0.214317 0.125914 55.845 3.36214e-07 
388 1 0.142927 0.142889 0.167597 55.845 -3.6763e-07 
389 1 0.178596 0.142795 0.125914 55.845 1.61667e-07 
390 1 0.17849 0.178552 0.167533 55.845 -1.3241e-07 
391 1 0.214279 0.178602 0.125867 55.845 3.693e-07 
392 1 0.214255 0.214291 0.167602 55.845 1.03471e-07 
393 1 0.249943 0.214269 0.125973 55.845 3.00892e-07 
402 1 0.214286 0.142895 0.167427 55.845 -3.27786e-07 
403 1 0.25006 0.142726 0.125875 55.845 7.2258e-08 
404 1 0.250024 0.178585 0.167394 55.845 4.58986e-09 
479 1 0.142857 0.178571 0.0416667 55.845 -9.7463e-08 
480 1 0.142818 0.214317 0.0844386 55.845 1.33804e-07 
481 1 0.178571 0.214286 0.0416667 55.845 -2.63443e-08 
490 1 0.142877 0.142828 0.0844617 55.845 -2.5031e-07 
491 1 0.178571 0.142857 0.0416667 55.845 -1.47475e-07 
492 1 0.178543 0.17857 0.084513 55.845 -2.6676e-07 
493 1 0.214286 0.178571 0.0416667 55.845 -1.69082e-07 
494 1 0.214208 0.214279 0.0844626 55.845 -1.77878e-08 
495 1 0.25 0.214286 0.0416667 55.845 -2.17791e-08 
504 1 0.214313 0.142836 0.084264 55.845 -1.75524e-07 
505 1 0.25 0.142857 0.0416667 55.845 -1.3257e-07 
506 1 0.250014 0.178623 0.0844965 55.845 -1.41055e-07 
571 1 0.142857 0.214286 0 55.845 2.99391e-07 
576 1 0.142857 0.142857 0 55.845 -6.81488e-09 
577 1 0.178571 0.178571 0 55.845 1.46503e-07 
578 1 0.214286 0.214286 0 55.845 -2.19926e-08 
583 1 0.214286 0.142857 0 55.845 -5.2371e-08 
584 1 0.25 0.178571 0 55.845 1.52176e-07 
303 1 0.285706 0.17865 0.209254 55.845 5.63927e-07 
305 1 0.321377 0.214371 0.209145 55.845 6.94748e-07 
315 1 0.321438 0.142831 0.209214 55.845 3.9945e-07 
317 1 0.357075 0.178575 0.209191 55.845 7.79977e-07 
405 1 0.285752 0.178555 0.125963 55.845 1.83507e-07 
406 1 0.285662 0.214292 0.167497 55.845 -4.0879e-08 
407 1 0.321405 0.214333 0.125965 55.845 2.87559e-07 
416 1 0.285708 0.14285 0.167563 55.845 -2.37768e-07 
417 1 0.321404 0.14287 0.125973 55.845 5.04007e-08 
418 1 0.321404 0.17861 0.167504 55.845 -3.70272e-07 
419 1 0.357104 0.178531 0.125991 55.845 2.77797e-07 
420 1 0.357148 0.21432 0.167544 55.845 -3.70262e-07 
432 1 0.357087 0.142821 0.16756 55.845 -5.15292e-07 
507 1 0.285714 0.178571 0.0416667 55.845 1.75579e-08 
508 1 0.285675 0.214368 0.0843511 55.845 4.21116e-09 
509 1 0.321429 0.214286 0.0416667 55.845 -1.51183e-08 
518 1 0.285699 0.142924 0.0844154 55.845 -1.19103e-07 
519 1 0.321429 0.142857 0.0416667 55.845 -1.40678e-07 
520 1 0.321433 0.178583 0.0844811 55.845 -8.81072e-08 
521 1 0.357143 0.178571 0.0416667 55.845 -3.269e-08 
522 1 0.357132 0.214268 0.0845044 55.845 5.16491e-08 
534 1 0.357108 0.142824 0.0844565 55.845 -1.79455e-07 
585 1 0.285714 0.214286 0 55.845 1.8147e-07 
590 1 0.285714 0.142857 0 55.845 2.51816e-07 
591 1 0.321429 0.178571 0 55.845 4.22209e-07 
592 1 0.357143 0.214286 0 55.845 3.5906e-07 
598 1 0.357143 0.142857 0 55.845 2.11247e-07 
319 1 0.392871 0.214269 0.209238 55.845 9.94896e-07 
321 1 0.428571 0.250082 0.209088 55.845 7.89502e-07 
331 1 0.39286 0.142749 0.20914 55.845 4.83225e-07 
333 1 0.428582 0.178599 0.20923 55.845 7.62958e-07 
335 1 0.464207 0.214328 0.209289 55.845 7.96761e-07 
345 1 0.464326 0.142862 0.209186 55.845 3.5297e-07 
606 1 0.464286 0.178571 0 55.845 1.84791e-07 
421 1 0.392775 0.214197 0.125915 55.845 4.35511e-07 
422 1 0.392864 0.250031 0.167353 55.845 -3.16964e-07 
423 1 0.428605 0.250033 0.125943 55.845 2.70661e-07 
433 1 0.392826 0.14282 0.125895 55.845 1.43042e-07 
434 1 0.392844 0.178535 0.167461 55.845 -4.54209e-07 
435 1 0.428534 0.178508 0.125905 55.845 3.63223e-07 
436 1 0.428443 0.21429 0.167401 55.845 -3.66327e-07 
437 1 0.464297 0.214389 0.12598 55.845 4.55729e-07 
605 1 0.428571 0.142857 0 55.845 1.00609e-07 
446 1 0.428531 0.142891 0.16748 55.845 -3.25173e-07 
447 1 0.464296 0.14292 0.125798 55.845 2.49737e-07 
448 1 0.464242 0.178679 0.167461 55.845 -4.65906e-07 
523 1 0.392857 0.214286 0.0416667 55.845 6.18909e-09 
524 1 0.392929 0.250013 0.0844223 55.845 -9.91113e-08 
525 1 0.428571 0.25 0.0416667 55.845 4.69069e-09 
535 1 0.392857 0.142857 0.0416667 55.845 1.21239e-08 
536 1 0.392852 0.178523 0.0844969 55.845 -1.71628e-07 
537 1 0.428571 0.178571 0.0416667 55.845 1.73496e-07 
538 1 0.428603 0.214301 0.0845305 55.845 -1.14129e-07 
539 1 0.464286 0.214286 0.0416667 55.845 1.53924e-07 
548 1 0.428567 0.142807 0.0844549 55.845 -3.04598e-07 
549 1 0.464286 0.142857 0.0416667 55.845 2.55789e-07 
550 1 0.464276 0.178633 0.084421 55.845 -3.58577e-07 
593 1 0.392857 0.25 0 55.845 2.14248e-07 
599 1 0.392857 0.178571 0 55.845 2.41949e-07 
600 1 0.428571 0.214286 0 55.845 2.17873e-07 
3 1 -2.20315e-05 0.107182 0.458416 55.845 -9.73036e-09 
7 1 1.68442e-05 0.0357023 0.458347 55.845 1.74008e-07 
8 1 0.0357276 0.0715422 0.458453 55.845 2.6892e-07 
9 1 0.071465 0.107148 0.45845 55.845 -9.85355e-08 
13 1 0.0357546 7.72106e-05 0.458283 55.845 -1.85107e-07 
14 1 0.0713861 0.0357702 0.458306 55.845 8.92808e-08 
15 1 0.107188 0.0714068 0.458288 55.845 2.07677e-07 
20 1 0.107147 2.34658e-05 0.458474 55.845 1.69811e-08 
55 1 5.72643e-06 0.107139 0.374268 55.845 1.11584e-07 
63 1 -1.34462e-06 0.0357908 0.374289 55.845 3.01214e-07 
64 1 -2.52761e-05 0.0714331 0.416446 55.845 -6.01161e-08 
65 1 0.0357397 0.0715017 0.374188 55.845 2.15103e-07 
66 1 0.0356825 0.107325 0.416419 55.845 -7.18623e-08 
67 1 0.0714371 0.107187 0.374305 55.845 3.32564e-08 
74 1 1.22751e-05 -3.56941e-06 0.416365 55.845 4.03636e-08 
75 1 0.035705 5.76405e-05 0.374087 55.845 6.76895e-08 
76 1 0.0357025 0.0357832 0.416288 55.845 -7.01626e-08 
77 1 0.0714265 0.0357528 0.374161 55.845 1.48774e-07 
78 1 0.07145 0.0715285 0.416336 55.845 9.80005e-08 
79 1 0.107221 0.0713533 0.374207 55.845 1.93475e-07 
80 1 0.107141 0.107129 0.416368 55.845 3.39747e-08 
88 1 0.071442 -3.31014e-05 0.416286 55.845 -3.16785e-07 
89 1 0.107222 -2.10527e-05 0.374275 55.845 1.01666e-07 
90 1 0.107207 0.0356721 0.416273 55.845 -3.38206e-08 
157 1 5.31151e-06 0.107165 0.291715 55.845 -4.31317e-07 
165 1 -2.91753e-05 0.0357429 0.291778 55.845 1.47916e-08 
166 1 1.85781e-05 0.0715001 0.33286 55.845 1.8294e-07 
167 1 0.0357382 0.0713993 0.291707 55.845 -1.86126e-07 
168 1 0.0357398 0.107129 0.332689 55.845 -2.53395e-08 
169 1 0.0714066 0.107082 0.291686 55.845 -4.82747e-07 
176 1 4.94138e-05 3.89407e-05 0.332629 55.845 -4.45501e-08 
177 1 0.0357754 -2.37592e-05 0.291779 55.845 -2.97974e-07 
178 1 0.035713 0.0358038 0.33268 55.845 -1.23238e-07 
179 1 0.0714464 0.0357158 0.291729 55.845 -2.80622e-07 
180 1 0.0714866 0.0714428 0.332704 55.845 3.14796e-08 
181 1 0.107154 0.071526 0.291783 55.845 -8.31619e-08 
182 1 0.107136 0.107079 0.332716 55.845 -7.4279e-09 
190 1 0.071463 2.01449e-05 0.332668 55.845 -5.20389e-07 
191 1 0.10718 -6.95665e-05 0.291921 55.845 -2.04524e-07 
192 1 0.107135 0.0356839 0.332618 55.845 1.46134e-09 
268 1 -1.92451e-05 0.0714334 0.250869 55.845 9.55425e-08 
270 1 0.0356372 0.107068 0.250848 55.845 -7.69181e-08 
278 1 -1.09829e-05 -1.34593e-05 0.250757 55.845 -2.61555e-07 
280 1 0.0356322 0.0356023 0.250855 55.845 -1.85678e-07 
282 1 0.0714547 0.0713976 0.250847 55.845 1.9777e-08 
284 1 0.107197 0.107158 0.250812 55.845 -2.92012e-07 
292 1 0.0714969 1.18377e-05 0.250888 55.845 -4.15837e-07 
294 1 0.107165 0.0357682 0.250844 55.845 -1.96499e-07 
16 1 0.142836 0.107118 0.458325 55.845 -7.78112e-08 
21 1 0.142897 0.03571 0.45837 55.845 2.80048e-07 
22 1 0.1786 0.0714157 0.458356 55.845 2.14684e-07 
23 1 0.214289 0.10714 0.458431 55.845 -1.2368e-07 
27 1 0.178598 7.86948e-05 0.458368 55.845 1.30516e-07 
28 1 0.214355 0.0357306 0.458444 55.845 2.28588e-07 
29 1 0.250054 0.0714701 0.458477 55.845 2.31568e-07 
81 1 0.142851 0.107131 0.374255 55.845 -6.73768e-08 
91 1 0.142892 0.0356416 0.374184 55.845 3.29983e-07 
92 1 0.142851 0.0713793 0.416334 55.845 -6.88689e-08 
93 1 0.178564 0.0714615 0.37433 55.845 3.92994e-07 
94 1 0.178588 0.107169 0.416401 55.845 7.66028e-09 
95 1 0.214383 0.10709 0.3743 55.845 4.48659e-08 
102 1 0.142909 -5.57849e-05 0.416347 55.845 -2.32102e-07 
103 1 0.178516 -2.46807e-05 0.374169 55.845 2.28898e-07 
104 1 0.178619 0.0356611 0.416366 55.845 -2.14427e-07 
105 1 0.214331 0.0357186 0.374194 55.845 3.07438e-07 
106 1 0.214355 0.071421 0.416339 55.845 -1.80071e-07 
107 1 0.250093 0.0714707 0.374203 55.845 3.73932e-07 
108 1 0.24998 0.107111 0.416408 55.845 -6.90881e-08 
118 1 0.214269 1.49702e-05 0.416297 55.845 -5.29405e-07 
120 1 0.250093 0.0357199 0.416314 55.845 -2.59072e-07 
183 1 0.142955 0.10709 0.291791 55.845 -2.91489e-07 
193 1 0.142823 0.0356883 0.291726 55.845 6.08867e-08 
194 1 0.142949 0.0713643 0.332727 55.845 2.00827e-08 
195 1 0.178586 0.0713515 0.291787 55.845 5.13284e-08 
196 1 0.178582 0.107067 0.332705 55.845 -2.71656e-07 
197 1 0.214365 0.107064 0.291735 55.845 -6.6037e-08 
204 1 0.142872 -8.63866e-05 0.3326 55.845 -2.53809e-07 
205 1 0.178581 -8.52016e-05 0.291717 55.845 -1.12529e-07 
206 1 0.178648 0.0356583 0.332734 55.845 -1.46787e-07 
207 1 0.214302 0.0357144 0.291691 55.845 6.21297e-08 
208 1 0.21422 0.0714088 0.33282 55.845 -1.38655e-07 
209 1 0.250017 0.0714214 0.291828 55.845 1.93827e-07 
210 1 0.250001 0.107097 0.332653 55.845 -1.73416e-07 
220 1 0.214309 -6.82334e-05 0.332726 55.845 -5.68463e-07 
222 1 0.249928 0.0356424 0.332709 55.845 -2.63334e-07 
296 1 0.142894 0.0714435 0.250797 55.845 -9.05903e-08 
298 1 0.178648 0.107032 0.250811 55.845 -5.84256e-07 
306 1 0.14282 -0.000101786 0.250821 55.845 -1.63046e-07 
308 1 0.178556 0.0356464 0.250787 55.845 -2.58366e-07 
310 1 0.214349 0.0713704 0.250959 55.845 -1.47341e-07 
312 1 0.250065 0.107142 0.250827 55.845 -2.38311e-07 
322 1 0.2142 1.30071e-05 0.250883 55.845 -3.25271e-07 
324 1 0.250038 0.0356998 0.250775 55.845 -1.90701e-07 
30 1 0.285741 0.107196 0.458349 55.845 -6.11914e-08 
35 1 0.249983 4.65336e-05 0.458375 55.845 6.61996e-08 
36 1 0.285814 0.0357838 0.458327 55.845 1.33407e-07 
37 1 0.321384 0.0714358 0.458303 55.845 1.95156e-07 
38 1 0.357144 0.107172 0.458171 55.845 -3.44403e-08 
42 1 0.321488 2.35169e-05 0.458412 55.845 3.99751e-08 
43 1 0.357136 0.0357897 0.458405 55.845 3.23863e-07 
109 1 0.285674 0.107169 0.374103 55.845 2.295e-07 
119 1 0.249932 3.84667e-05 0.374172 55.845 2.55618e-07 
121 1 0.285704 0.035677 0.374225 55.845 3.3079e-07 
122 1 0.285684 0.0714412 0.416289 55.845 -1.42174e-07 
123 1 0.321454 0.0713659 0.374336 55.845 1.28452e-07 
124 1 0.321456 0.107095 0.416163 55.845 -8.33953e-08 
125 1 0.357136 0.107128 0.374079 55.845 -3.74884e-08 
133 1 0.321419 2.81591e-05 0.374215 55.845 2.38308e-08 
134 1 0.321483 0.0357295 0.416384 55.845 -2.07791e-07 
135 1 0.35716 0.0356846 0.374085 55.845 2.56977e-08 
136 1 0.357149 0.0713968 0.416253 55.845 4.19357e-08 
211 1 0.28574 0.107132 0.291703 55.845 -8.04383e-08 
221 1 0.249958 1.23143e-05 0.291674 55.845 -2.35349e-07 
223 1 0.285706 0.0356993 0.291827 55.845 -1.81664e-07 
224 1 0.285801 0.0713524 0.332735 55.845 6.53669e-08 
225 1 0.321427 0.071354 0.291857 55.845 -2.86617e-07 
226 1 0.321502 0.107084 0.332628 55.845 3.04335e-08 
227 1 0.35713 0.107173 0.291729 55.845 -3.42827e-07 
235 1 0.321485 -5.7339e-05 0.291887 55.845 -5.7959e-07 
236 1 0.321474 0.0357209 0.332735 55.845 -5.15715e-08 
237 1 0.357147 0.0357118 0.291849 55.845 -5.60989e-07 
238 1 0.357198 0.071405 0.332647 55.845 1.35266e-07 
326 1 0.285739 0.0713623 0.250931 55.845 5.09618e-08 
328 1 0.321372 0.107013 0.25074 55.845 -3.15677e-07 
338 1 0.32148 0.0356123 0.250812 55.845 -1.10597e-07 
340 1 0.357166 0.0713924 0.250853 55.845 3.44122e-08 
44 1 0.39279 0.0714359 0.458402 55.845 3.39375e-07 
45 1 0.428562 0.107161 0.458389 55.845 -9.94423e-09 
47 1 0.392904 -2.60093e-06 0.458208 55.845 1.48213e-07 
48 1 0.428625 0.0356671 0.45818 55.845 1.65507e-07 
49 1 0.464238 0.0714332 0.458319 55.845 9.25192e-08 
50 1 0.464324 -4.37411e-05 0.458368 55.845 -1.90634e-07 
137 1 0.392951 0.0713632 0.37408 55.845 1.90129e-07 
138 1 0.392917 0.107087 0.416142 55.845 7.80136e-08 
139 1 0.428656 0.107104 0.374176 55.845 2.22556e-07 
144 1 0.392894 -3.32482e-05 0.374147 55.845 -4.41906e-08 
145 1 0.392878 0.0356977 0.416239 55.845 1.68162e-07 
146 1 0.428572 0.0357485 0.374041 55.845 3.20278e-07 
147 1 0.428538 0.0714142 0.416336 55.845 1.67756e-07 
148 1 0.464327 0.0714042 0.374179 55.845 2.60044e-07 
149 1 0.46425 0.107095 0.416324 55.845 -3.65765e-08 
150 1 0.428562 -9.47828e-05 0.416243 55.845 -1.6356e-08 
151 1 0.464268 -2.23763e-05 0.374142 55.845 -1.05354e-07 
152 1 0.464259 0.0357248 0.416377 55.845 -1.22665e-08 
239 1 0.392859 0.0714433 0.29179 55.845 -2.96966e-07 
240 1 0.392867 0.107088 0.332739 55.845 6.35165e-08 
241 1 0.428622 0.107105 0.291689 55.845 -3.30053e-07 
246 1 0.392858 3.16209e-05 0.291822 55.845 -5.92182e-07 
247 1 0.392856 0.0356885 0.332691 55.845 2.3141e-07 
248 1 0.428603 0.035684 0.291837 55.845 -4.91638e-07 
249 1 0.428634 0.071401 0.332681 55.845 1.50337e-07 
250 1 0.464285 0.0714137 0.291793 55.845 -4.75735e-07 
251 1 0.464284 0.107163 0.332623 55.845 -9.12019e-08 
252 1 0.428602 -5.3078e-05 0.332678 55.845 4.73229e-08 
253 1 0.464328 -9.25227e-05 0.291781 55.845 -5.73754e-07 
254 1 0.464316 0.0356705 0.332662 55.845 -3.5029e-08 
342 1 0.392925 0.1072 0.250805 55.845 -1.28705e-07 
349 1 0.392858 0.0357293 0.250961 55.845 1.82068e-07 
351 1 0.428663 0.0713263 0.25093 55.845 2.32463e-07 
353 1 0.464281 0.107144 0.250899 55.845 -1.96216e-07 
354 1 0.42857 -4.94581e-05 0.250859 55.845 1.90819e-07 
356 1 0.464321 0.035725 0.25097 55.845 1.36493e-07 
1 1 7.55016e-06 0.178563 0.45831 55.845 2.19719e-07 
2 1 0.035752 0.214269 0.458272 55.845 8.08182e-08 
4 1 0.0357135 0.142867 0.458485 55.845 -8.71563e-08 
5 1 0.0714477 0.178663 0.458437 55.845 3.07366e-08 
6 1 0.10721 0.214301 0.458419 55.845 2.61363e-07 
10 1 0.107181 0.142841 0.458342 55.845 -9.37057e-08 
51 1 2.1376e-05 0.178567 0.37422 55.845 1.2592e-07 
52 1 -7.78136e-05 0.214222 0.416336 55.845 2.546e-07 
53 1 0.0356431 0.214273 0.374347 55.845 1.74571e-07 
54 1 0.0356887 0.249976 0.416407 55.845 -4.13373e-08 
56 1 6.95731e-05 0.142904 0.416286 55.845 -1.64297e-07 
57 1 0.0357528 0.142903 0.374248 55.845 -7.35204e-08 
58 1 0.0357008 0.1785 0.416214 55.845 -4.39837e-08 
59 1 0.0714018 0.178533 0.374186 55.845 1.20332e-07 
60 1 0.0713964 0.214226 0.416271 55.845 -1.94377e-09 
61 1 0.107175 0.214296 0.374144 55.845 7.86786e-08 
62 1 0.107133 0.249927 0.416302 55.845 -6.53448e-08 
68 1 0.0714401 0.142897 0.416393 55.845 -7.98581e-08 
69 1 0.10715 0.142858 0.374243 55.845 -1.36993e-07 
70 1 0.107159 0.1786 0.416153 55.845 1.66327e-07 
153 1 4.16015e-05 0.178678 0.291717 55.845 -4.12658e-07 
154 1 -2.41109e-05 0.214361 0.332699 55.845 2.85917e-07 
155 1 0.035734 0.214278 0.291888 55.845 -1.11769e-07 
156 1 0.0357271 0.249983 0.332661 55.845 -1.03971e-07 
158 1 5.8086e-05 0.14288 0.332675 55.845 -7.09229e-08 
159 1 0.0357933 0.142823 0.291829 55.845 -5.87769e-07 
160 1 0.0356377 0.178598 0.332694 55.845 1.3201e-07 
161 1 0.0714444 0.178563 0.291947 55.845 -3.17788e-07 
162 1 0.0714179 0.214181 0.332755 55.845 1.55627e-07 
163 1 0.10714 0.214317 0.291879 55.845 -1.63158e-07 
164 1 0.107162 0.249959 0.332726 55.845 3.40027e-09 
170 1 0.0714491 0.142787 0.33272 55.845 1.36398e-08 
171 1 0.107148 0.142784 0.291889 55.845 -5.18794e-07 
172 1 0.10714 0.178624 0.332686 55.845 1.53484e-07 
256 1 4.73738e-05 0.214291 0.250787 55.845 1.81661e-07 
258 1 0.035706 0.249998 0.25084 55.845 -2.5292e-07 
260 1 9.04743e-05 0.142842 0.250973 55.845 1.04159e-07 
262 1 0.0356698 0.178611 0.250923 55.845 -1.12886e-08 
264 1 0.0714791 0.214211 0.250847 55.845 -8.61635e-08 
266 1 0.107155 0.250029 0.250877 55.845 -1.99012e-07 
272 1 0.0714246 0.142888 0.250895 55.845 -5.91537e-08 
274 1 0.107145 0.178542 0.250841 55.845 -2.89998e-07 
11 1 0.142832 0.178567 0.458379 55.845 6.39087e-08 
12 1 0.178625 0.21427 0.458387 55.845 1.39733e-07 
17 1 0.17856 0.142829 0.458452 55.845 -1.9431e-07 
18 1 0.214358 0.178663 0.458402 55.845 -1.41978e-07 
19 1 0.250072 0.214308 0.458359 55.845 1.25505e-07 
24 1 0.24995 0.142769 0.458308 55.845 -1.02333e-07 
71 1 0.142893 0.178577 0.374203 55.845 2.42382e-08 
72 1 0.142975 0.214263 0.416304 55.845 1.95443e-07 
73 1 0.178651 0.214191 0.374053 55.845 5.87111e-08 
82 1 0.14288 0.142896 0.416312 55.845 7.78532e-10 
83 1 0.178601 0.142873 0.374248 55.845 -1.31284e-07 
84 1 0.178647 0.178593 0.416341 55.845 1.68384e-07 
85 1 0.214262 0.178462 0.37414 55.845 -1.51507e-09 
86 1 0.214337 0.214279 0.41632 55.845 8.52787e-08 
87 1 0.250008 0.214262 0.374255 55.845 5.89058e-08 
96 1 0.214198 0.142878 0.416254 55.845 -6.79925e-08 
97 1 0.250024 0.142827 0.374281 55.845 8.37404e-08 
98 1 0.249911 0.178556 0.41632 55.845 2.77193e-07 
173 1 0.142856 0.178536 0.291795 55.845 -3.15238e-07 
174 1 0.142988 0.214258 0.33271 55.845 1.82104e-07 
175 1 0.178594 0.21424 0.291652 55.845 -1.87553e-07 
184 1 0.142882 0.142811 0.332873 55.845 -2.11411e-07 
185 1 0.178556 0.142758 0.291783 55.845 -4.25865e-07 
186 1 0.178585 0.178503 0.332644 55.845 -4.51349e-08 
187 1 0.214315 0.178463 0.291772 55.845 -2.24077e-07 
188 1 0.214284 0.214204 0.332804 55.845 9.36453e-08 
189 1 0.25007 0.214262 0.291854 55.845 -1.66456e-07 
198 1 0.214318 0.142751 0.332702 55.845 -3.4578e-07 
199 1 0.250024 0.142863 0.291675 55.845 -1.8561e-07 
200 1 0.250023 0.178532 0.332688 55.845 3.58711e-08 
276 1 0.142818 0.214233 0.250753 55.845 -6.59833e-08 
286 1 0.142875 0.142732 0.250947 55.845 -3.80505e-07 
288 1 0.17861 0.178542 0.250805 55.845 -3.59529e-07 
290 1 0.214322 0.2143 0.251008 55.845 1.14365e-08 
300 1 0.214334 0.142909 0.25081 55.845 -4.07579e-07 
302 1 0.250111 0.178645 0.250928 55.845 -2.17123e-07 
25 1 0.28569 0.178504 0.458386 55.845 9.88292e-08 
26 1 0.321474 0.214281 0.458222 55.845 1.42066e-07 
31 1 0.32138 0.142903 0.458193 55.845 -1.90881e-07 
32 1 0.357085 0.178595 0.458335 55.845 1.65446e-07 
99 1 0.28573 0.178536 0.374194 55.845 1.44596e-07 
100 1 0.285722 0.214274 0.416324 55.845 5.56399e-08 
101 1 0.321485 0.214359 0.374097 55.845 1.03471e-07 
110 1 0.285695 0.142846 0.416234 55.845 -1.06222e-08 
111 1 0.321394 0.142782 0.374235 55.845 -1.43017e-07 
112 1 0.321475 0.178583 0.41618 55.845 -1.11052e-07 
113 1 0.357125 0.178631 0.374139 55.845 2.17274e-07 
114 1 0.35714 0.214314 0.416331 55.845 1.28954e-07 
126 1 0.357224 0.142851 0.416145 55.845 -1.31247e-07 
201 1 0.28578 0.178569 0.291764 55.845 -1.72077e-07 
202 1 0.285705 0.214302 0.332757 55.845 1.0354e-07 
203 1 0.321438 0.21431 0.291705 55.845 -5.29562e-08 
212 1 0.285737 0.142851 0.332574 55.845 -8.65436e-08 
213 1 0.321373 0.14285 0.291783 55.845 -3.12831e-07 
214 1 0.321484 0.178678 0.332761 55.845 1.64935e-08 
215 1 0.357074 0.178589 0.291772 55.845 1.62298e-08 
216 1 0.357113 0.214381 0.332629 55.845 -3.93002e-08 