ITEM: TIMESTEP
7000
ITEM: NUMBER OF ATOMS
5880
ITEM: BOX BOUNDS pp pp ff
-27.9891 27.9891
-27.9891 27.9891
0 34.092
ITEM: ATOMS id type xs ys zs mass q 
259 1 5.53494e-08 0.107107 0.207291 55.845 1.55607e-07 
267 1 -7.40054e-05 0.0357248 0.207184 55.845 2.4055e-07 
269 1 0.0358116 0.0714012 0.207284 55.845 1.44567e-07 
271 1 0.0712892 0.107277 0.207119 55.845 8.52288e-08 
279 1 0.0357381 4.13174e-05 0.207172 55.845 4.31466e-07 
281 1 0.0714315 0.0357276 0.207272 55.845 2.60157e-07 
283 1 0.107106 0.0715195 0.207137 55.845 7.25455e-08 
293 1 0.107118 -1.6745e-05 0.207095 55.845 2.37805e-07 
361 1 -5.69605e-05 0.107164 0.124281 55.845 4.60725e-07 
369 1 2.71114e-05 0.0355893 0.124359 55.845 4.09811e-07 
370 1 3.57396e-05 0.0713909 0.165657 55.845 -4.60196e-07 
371 1 0.035667 0.0714125 0.124344 55.845 4.02147e-07 
372 1 0.0357102 0.107192 0.165703 55.845 -2.79516e-07 
373 1 0.071364 0.107222 0.124251 55.845 2.15389e-07 
380 1 -1.83878e-06 -4.77955e-05 0.165705 55.845 -4.23075e-07 
381 1 0.0356534 -5.12304e-05 0.124372 55.845 2.16053e-07 
382 1 0.0357315 0.0357392 0.165636 55.845 -3.67444e-07 
383 1 0.0714149 0.035784 0.124238 55.845 1.98092e-07 
384 1 0.0714484 0.0715382 0.165699 55.845 -2.71092e-07 
385 1 0.107199 0.0715027 0.124277 55.845 1.23856e-07 
386 1 0.107059 0.107126 0.165684 55.845 -7.68334e-08 
394 1 0.0714048 -4.35907e-05 0.165676 55.845 -2.7226e-07 
395 1 0.107085 1.18717e-05 0.124326 55.845 1.43936e-07 
396 1 0.107144 0.0357147 0.165605 55.845 -1.90391e-07 
463 1 0 0.107143 0.0416667 55.845 -9.59908e-08 
471 1 0 0.0357143 0.0416667 55.845 4.03292e-09 
472 1 3.47906e-05 0.0714221 0.0824716 55.845 2.68492e-07 
473 1 0.0357143 0.0714286 0.0416667 55.845 -1.73043e-07 
474 1 0.0357254 0.107156 0.0824528 55.845 5.48792e-08 
475 1 0.0714286 0.107143 0.0416667 55.845 -6.60746e-07 
482 1 -1.5606e-05 -0.000122836 0.0824338 55.845 -1.03463e-07 
483 1 0.0357143 0 0.0416667 55.845 -2.57439e-07 
484 1 0.035727 0.0356483 0.082351 55.845 1.95256e-07 
485 1 0.0714286 0.0357143 0.0416667 55.845 -3.0895e-07 
486 1 0.0714265 0.0714546 0.0823207 55.845 2.86318e-09 
487 1 0.107143 0.0714286 0.0416667 55.845 -7.01124e-07 
488 1 0.107124 0.107082 0.0822547 55.845 4.90657e-08 
496 1 0.0713584 1.62669e-05 0.082467 55.845 1.3148e-07 
497 1 0.107143 0 0.0416667 55.845 -1.40441e-07 
498 1 0.107053 0.0357507 0.0822703 55.845 7.92799e-08 
567 1 0 0.0714286 0 55.845 5.47401e-07 
568 1 0.0357143 0.107143 0 55.845 2.5872e-07 
572 1 0 0 0 55.845 -1.06732e-07 
573 1 0.0357143 0.0357143 0 55.845 2.77715e-07 
574 1 0.0714286 0.0714286 0 55.845 1.35453e-07 
575 1 0.107143 0.107143 0 55.845 2.49894e-07 
579 1 0.0714286 0 0 55.845 9.80955e-08 
580 1 0.107143 0.0357143 0 55.845 3.04258e-08 
285 1 0.142857 0.10722 0.20726 55.845 -4.7646e-08 
295 1 0.142865 0.0356745 0.207311 55.845 1.53236e-07 
297 1 0.178486 0.0713013 0.207179 55.845 1.02499e-07 
299 1 0.214173 0.107128 0.207109 55.845 2.69008e-07 
307 1 0.178459 -0.000118395 0.207332 55.845 1.78813e-07 
309 1 0.214135 0.0357244 0.207196 55.845 1.51621e-07 
311 1 0.249886 0.0714167 0.207127 55.845 2.61718e-07 
387 1 0.142834 0.107157 0.124211 55.845 6.2493e-08 
397 1 0.142822 0.0357209 0.124258 55.845 3.5786e-08 
398 1 0.142895 0.0714417 0.165777 55.845 -2.17028e-07 
399 1 0.178631 0.0713808 0.124331 55.845 1.48326e-07 
400 1 0.178554 0.107068 0.165614 55.845 -2.9873e-07 
401 1 0.214193 0.107122 0.124304 55.845 2.21608e-07 
408 1 0.142812 8.63544e-05 0.165668 55.845 -4.45969e-07 
409 1 0.178508 -1.41487e-05 0.124446 55.845 1.63463e-07 
410 1 0.178545 0.0356435 0.165702 55.845 -2.55022e-07 
411 1 0.214302 0.0357876 0.124315 55.845 2.69054e-07 
412 1 0.214183 0.0714459 0.165595 55.845 -3.764e-07 
413 1 0.249986 0.0714124 0.124398 55.845 2.193e-07 
414 1 0.249941 0.107257 0.165654 55.845 -5.39676e-07 
424 1 0.21432 3.42792e-05 0.165679 55.845 -2.79161e-07 
426 1 0.249989 0.0357057 0.165657 55.845 -3.64684e-07 
489 1 0.142857 0.107143 0.0416667 55.845 -3.90291e-07 
499 1 0.142857 0.0357143 0.0416667 55.845 -4.95681e-07 
500 1 0.142875 0.0714563 0.0823409 55.845 -6.26756e-08 
501 1 0.178571 0.0714286 0.0416667 55.845 -3.0682e-07 
502 1 0.178502 0.107104 0.0824583 55.845 1.40692e-07 
503 1 0.214286 0.107143 0.0416667 55.845 8.54992e-08 
510 1 0.142885 7.76151e-06 0.0823554 55.845 8.48803e-08 
511 1 0.178571 0 0.0416667 55.845 -2.0891e-07 
512 1 0.178536 0.0356961 0.0823256 55.845 -4.81645e-08 
513 1 0.214286 0.0357143 0.0416667 55.845 -2.49069e-07 
514 1 0.214323 0.0714662 0.0823687 55.845 1.11386e-07 
515 1 0.25 0.0714286 0.0416667 55.845 -1.68594e-07 
516 1 0.249955 0.107064 0.0823443 55.845 -1.58604e-08 
526 1 0.214248 -1.82958e-05 0.0824101 55.845 -2.20987e-07 
528 1 0.249985 0.0356583 0.0823018 55.845 -3.68763e-08 
581 1 0.142857 0.0714286 0 55.845 6.8537e-08 
582 1 0.178571 0.107143 0 55.845 3.21117e-07 
586 1 0.142857 0 0 55.845 9.29307e-08 
587 1 0.178571 0.0357143 0 55.845 4.91291e-08 
588 1 0.214286 0.0714286 0 55.845 2.029e-07 
589 1 0.25 0.107143 0 55.845 1.78112e-08 
594 1 0.214286 0 0 55.845 1.34132e-07 
595 1 0.25 0.0357143 0 55.845 1.67426e-07 
313 1 0.2857 0.107142 0.20724 55.845 2.97167e-07 
323 1 0.249922 3.22773e-05 0.207101 55.845 1.9979e-07 
325 1 0.285674 0.0357299 0.207144 55.845 9.91731e-08 
327 1 0.321449 0.0713478 0.207412 55.845 -3.40592e-08 
329 1 0.35717 0.107246 0.207232 55.845 8.04569e-09 
337 1 0.321378 -2.95702e-05 0.207171 55.845 -1.04233e-07 
339 1 0.357201 0.0355826 0.20713 55.845 -1.75521e-08 
415 1 0.285666 0.107111 0.124236 55.845 1.21301e-07 
425 1 0.249939 2.76729e-05 0.12418 55.845 3.17487e-07 
427 1 0.285675 0.0357785 0.12419 55.845 1.95384e-07 
428 1 0.285717 0.071413 0.165673 55.845 -4.51832e-07 
429 1 0.321405 0.071387 0.124442 55.845 1.65245e-07 
430 1 0.321465 0.107102 0.16569 55.845 -3.68055e-07 
431 1 0.357173 0.107045 0.124309 55.845 2.05517e-07 
439 1 0.321332 -2.9844e-05 0.124319 55.845 3.28995e-07 
440 1 0.321406 0.0357125 0.165793 55.845 -3.45094e-07 
441 1 0.357143 0.0356046 0.124549 55.845 2.22272e-07 
442 1 0.357157 0.071354 0.165919 55.845 -1.66328e-07 
517 1 0.285714 0.107143 0.0416667 55.845 -2.68942e-07 
527 1 0.25 0 0.0416667 55.845 -3.03656e-07 
529 1 0.285714 0.0357143 0.0416667 55.845 -4.07477e-07 
530 1 0.285649 0.0714488 0.0825006 55.845 -3.86227e-08 
531 1 0.321429 0.0714286 0.0416667 55.845 -6.06597e-07 
532 1 0.321344 0.107072 0.0825167 55.845 -4.29476e-08 
533 1 0.357143 0.107143 0.0416667 55.845 -4.75173e-07 
603 1 0.357143 0.0714286 0 55.845 2.11013e-07 
541 1 0.321429 0 0.0416667 55.845 -4.61628e-07 
542 1 0.321472 0.0357756 0.0824696 55.845 -2.40159e-08 
543 1 0.357143 0.0357143 0.0416667 55.845 -5.45864e-07 
544 1 0.357134 0.0714496 0.0824548 55.845 -8.4536e-08 
602 1 0.321429 0.0357143 0 55.845 1.4877e-07 
596 1 0.285714 0.0714286 0 55.845 1.5501e-07 
597 1 0.321429 0.107143 0 55.845 2.23598e-07 
612 1 0.464286 0.0357143 0 55.845 3.97768e-08 
611 1 0.428571 0 0 55.845 1.33176e-07 
610 1 0.464286 0.107143 0 55.845 -1.28748e-07 
609 1 0.428571 0.0714286 0 55.845 2.57214e-09 
608 1 0.392857 0.0357143 0 55.845 2.64312e-07 
341 1 0.392925 0.0714545 0.207367 55.845 9.15527e-08 
343 1 0.428638 0.107167 0.207395 55.845 3.54264e-07 
348 1 0.392865 -3.55997e-05 0.207282 55.845 7.82564e-08 
350 1 0.428598 0.0356897 0.207278 55.845 4.10287e-07 
352 1 0.464306 0.0713648 0.207357 55.845 5.26421e-07 
355 1 0.464207 -2.16419e-05 0.20731 55.845 4.42268e-07 
443 1 0.392921 0.0712815 0.1243 55.845 2.51106e-07 
444 1 0.392899 0.107098 0.165817 55.845 -2.98622e-07 
445 1 0.428637 0.107045 0.124378 55.845 4.73434e-07 
604 1 0.392857 0.107143 0 55.845 2.43771e-07 
450 1 0.392812 -6.00307e-05 0.124252 55.845 3.58881e-07 
451 1 0.392898 0.0357108 0.165768 55.845 -3.21002e-07 
452 1 0.428643 0.0357153 0.124341 55.845 2.47378e-07 
453 1 0.428703 0.0714534 0.165693 55.845 -5.51108e-07 
454 1 0.46442 0.0714564 0.124276 55.845 3.72987e-07 
455 1 0.464314 0.107031 0.165738 55.845 -6.81879e-07 
456 1 0.428554 9.83379e-06 0.165684 55.845 -4.77556e-07 
457 1 0.46417 2.14663e-05 0.124298 55.845 2.61656e-07 
458 1 0.464261 0.0357309 0.165832 55.845 -7.04958e-07 
545 1 0.392857 0.0714286 0.0416667 55.845 -5.78624e-07 
546 1 0.392887 0.107114 0.0824344 55.845 8.60916e-08 
547 1 0.428571 0.107143 0.0416667 55.845 -3.34723e-07 
552 1 0.392857 0 0.0416667 55.845 -1.56749e-07 
553 1 0.392831 0.035693 0.0825338 55.845 -1.2521e-08 
554 1 0.428571 0.0357143 0.0416667 55.845 -2.6479e-07 
555 1 0.428601 0.0713611 0.0823869 55.845 -1.34588e-07 
556 1 0.464286 0.0714286 0.0416667 55.845 -2.11355e-07 
557 1 0.464321 0.107138 0.0824784 55.845 -3.78413e-07 
558 1 0.428493 7.8627e-05 0.0823969 55.845 9.47818e-08 
559 1 0.464286 0 0.0416667 55.845 -1.00966e-07 
560 1 0.464301 0.0357271 0.0822834 55.845 -9.84475e-08 
255 1 -7.37374e-05 0.178621 0.207112 55.845 3.94552e-07 
257 1 0.0357322 0.214357 0.207213 55.845 1.48617e-07 
261 1 0.0356736 0.142981 0.207366 55.845 1.78641e-07 
263 1 0.0713593 0.178691 0.207282 55.845 -6.93605e-08 
265 1 0.107058 0.214265 0.207004 55.845 -1.40783e-07 
273 1 0.107135 0.142895 0.20713 55.845 -1.43926e-07 
357 1 9.21395e-05 0.17864 0.124218 55.845 1.15893e-07 
358 1 7.60783e-05 0.214357 0.165552 55.845 -4.56819e-07 
359 1 0.0357075 0.214272 0.12419 55.845 3.03999e-07 
360 1 0.0357178 0.250007 0.165621 55.845 -2.96106e-07 
362 1 6.56056e-05 0.142858 0.165707 55.845 -4.88501e-07 
363 1 0.0357295 0.142846 0.1243 55.845 3.57334e-07 
364 1 0.0356888 0.178674 0.165655 55.845 -3.14393e-07 
365 1 0.0714028 0.178514 0.124142 55.845 1.96237e-07 
366 1 0.0713571 0.214307 0.165597 55.845 -2.01504e-07 
367 1 0.107176 0.214273 0.124109 55.845 1.75617e-07 
368 1 0.107129 0.250017 0.165735 55.845 -1.55072e-07 
374 1 0.0713519 0.142953 0.165669 55.845 -1.49276e-07 
375 1 0.107083 0.1428 0.124178 55.845 2.07648e-07 
376 1 0.107076 0.178534 0.165594 55.845 -2.40841e-07 
459 1 0 0.178571 0.0416667 55.845 -3.87504e-07 
460 1 9.37481e-05 0.214339 0.0823252 55.845 -1.96729e-07 
461 1 0.0357143 0.214286 0.0416667 55.845 -2.17352e-07 
462 1 0.0357095 0.250111 0.0825047 55.845 2.42432e-07 
464 1 -1.51753e-05 0.142807 0.0824535 55.845 -2.25172e-07 
465 1 0.0357143 0.142857 0.0416667 55.845 -5.06934e-07 
466 1 0.0357345 0.178557 0.0822892 55.845 -2.56961e-07 
467 1 0.0714286 0.178571 0.0416667 55.845 -4.35492e-07 
468 1 0.0713655 0.214226 0.0822356 55.845 9.88143e-08 
469 1 0.107143 0.214286 0.0416667 55.845 -2.31734e-07 
470 1 0.107181 0.249945 0.0825362 55.845 2.87775e-08 
476 1 0.0714114 0.142765 0.0821687 55.845 3.67692e-08 
477 1 0.107143 0.142857 0.0416667 55.845 -4.48509e-07 
478 1 0.107115 0.178527 0.082424 55.845 1.54896e-07 
561 1 0 0.214286 0 55.845 8.0227e-08 
562 1 0.0357143 0.25 0 55.845 3.32821e-07 
563 1 0 0.142857 0 55.845 6.50169e-08 
564 1 0.0357143 0.178571 0 55.845 9.99939e-08 
565 1 0.0714286 0.214286 0 55.845 2.70138e-07 
566 1 0.107143 0.25 0 55.845 1.30453e-07 
569 1 0.0714286 0.142857 0 55.845 2.03896e-07 
570 1 0.107143 0.178571 0 55.845 3.2323e-07 
275 1 0.142756 0.178619 0.207191 55.845 -6.46881e-08 
277 1 0.178564 0.214304 0.207116 55.845 4.20481e-07 
287 1 0.178494 0.142804 0.207095 55.845 9.73261e-08 
289 1 0.214183 0.178668 0.207141 55.845 5.47808e-07 
291 1 0.249929 0.214267 0.207293 55.845 4.2158e-07 
301 1 0.249968 0.142899 0.207311 55.845 6.25187e-07 
377 1 0.142785 0.178523 0.124261 55.845 2.36889e-07 
378 1 0.142844 0.21429 0.165604 55.845 -3.95939e-07 
379 1 0.178635 0.214259 0.124251 55.845 8.10789e-08 
388 1 0.142825 0.142872 0.165501 55.845 -2.16896e-07 
389 1 0.178608 0.14273 0.124466 55.845 2.45841e-07 
390 1 0.178556 0.178441 0.165855 55.845 -4.79459e-07 
391 1 0.214282 0.178551 0.124329 55.845 1.72057e-07 
392 1 0.214396 0.214347 0.165664 55.845 -7.34194e-07 
393 1 0.250075 0.214349 0.124482 55.845 3.00612e-07 
402 1 0.214326 0.142863 0.165699 55.845 -5.95393e-07 
403 1 0.249954 0.14292 0.124122 55.845 1.57689e-07 
404 1 0.250084 0.178497 0.165745 55.845 -7.40235e-07 
479 1 0.142857 0.178571 0.0416667 55.845 -1.84558e-07 
480 1 0.142897 0.214171 0.0823015 55.845 -7.36745e-08 
481 1 0.178571 0.214286 0.0416667 55.845 -3.12024e-07 
490 1 0.142815 0.14279 0.0822881 55.845 2.42046e-07 
491 1 0.178571 0.142857 0.0416667 55.845 -3.91343e-09 
492 1 0.17854 0.178546 0.0824127 55.845 -6.46683e-08 
493 1 0.214286 0.178571 0.0416667 55.845 -1.15074e-08 
494 1 0.214389 0.214236 0.0824361 55.845 -2.83639e-07 
495 1 0.25 0.214286 0.0416667 55.845 7.92986e-08 
504 1 0.21422 0.142872 0.0823612 55.845 2.95642e-08 
505 1 0.25 0.142857 0.0416667 55.845 -1.35375e-07 
506 1 0.250018 0.178613 0.0824693 55.845 -2.42264e-07 
571 1 0.142857 0.214286 0 55.845 9.23444e-08 
576 1 0.142857 0.142857 0 55.845 3.39382e-07 
577 1 0.178571 0.178571 0 55.845 3.68731e-08 
578 1 0.214286 0.214286 0 55.845 3.94907e-08 
583 1 0.214286 0.142857 0 55.845 1.23657e-07 
584 1 0.25 0.178571 0 55.845 -1.11505e-07 
303 1 0.285671 0.178654 0.207147 55.845 4.81842e-07 
305 1 0.321302 0.214301 0.207321 55.845 2.00533e-07 
315 1 0.321468 0.142909 0.207196 55.845 2.47597e-07 
317 1 0.357181 0.178669 0.207332 55.845 2.14359e-08 
405 1 0.285603 0.178634 0.124257 55.845 6.8296e-08 
406 1 0.285659 0.214283 0.165516 55.845 -5.19986e-07 
407 1 0.321398 0.21434 0.124347 55.845 1.24034e-07 
416 1 0.285675 0.142818 0.165574 55.845 -5.26874e-07 
417 1 0.321356 0.142815 0.124345 55.845 1.43862e-07 
418 1 0.321398 0.178704 0.165662 55.845 -4.85931e-07 
419 1 0.357104 0.178605 0.124291 55.845 2.68166e-07 
420 1 0.357139 0.214267 0.165629 55.845 -3.96613e-07 
432 1 0.357195 0.142893 0.165481 55.845 -3.84106e-07 
507 1 0.285714 0.178571 0.0416667 55.845 -1.94119e-07 
508 1 0.285772 0.214383 0.0823391 55.845 -1.48427e-07 
509 1 0.321429 0.214286 0.0416667 55.845 -2.11166e-07 
518 1 0.285725 0.142859 0.0823739 55.845 -1.70789e-07 
519 1 0.321429 0.142857 0.0416667 55.845 -3.1816e-07 
520 1 0.321425 0.178663 0.0824684 55.845 -3.74053e-08 
521 1 0.357143 0.178571 0.0416667 55.845 -1.47899e-07 
522 1 0.357105 0.21427 0.082385 55.845 -5.29797e-08 
534 1 0.357008 0.14282 0.0824319 55.845 1.42456e-07 
585 1 0.285714 0.214286 0 55.845 1.10091e-07 
590 1 0.285714 0.142857 0 55.845 -1.14267e-07 
591 1 0.321429 0.178571 0 55.845 1.43288e-07 
592 1 0.357143 0.214286 0 55.845 6.76103e-08 
598 1 0.357143 0.142857 0 55.845 3.76192e-07 
319 1 0.392825 0.214172 0.207161 55.845 2.4862e-07 
321 1 0.428467 0.249998 0.207137 55.845 3.47292e-07 
331 1 0.392833 0.142867 0.20727 55.845 8.45738e-08 
333 1 0.428532 0.178493 0.207132 55.845 2.70158e-07 
335 1 0.464247 0.214269 0.207298 55.845 3.17287e-07 
345 1 0.464318 0.142812 0.207254 55.845 5.58829e-07 
606 1 0.464286 0.178571 0 55.845 1.29785e-07 
421 1 0.392872 0.214366 0.124177 55.845 2.13266e-07 
422 1 0.392763 0.249998 0.165582 55.845 -3.48509e-07 
423 1 0.428533 0.249964 0.124406 55.845 1.29282e-07 
433 1 0.392865 0.142773 0.124246 55.845 5.1686e-07 
434 1 0.392833 0.17854 0.165438 55.845 -4.64821e-07 
435 1 0.42853 0.178593 0.124362 55.845 3.84522e-07 
436 1 0.42866 0.214262 0.165633 55.845 -5.20465e-07 
437 1 0.464336 0.214297 0.124339 55.845 3.55768e-07 
605 1 0.428571 0.142857 0 55.845 2.12233e-07 
446 1 0.428674 0.142794 0.16576 55.845 -4.68627e-07 
447 1 0.464264 0.142836 0.124306 55.845 2.35283e-07 
448 1 0.464287 0.17854 0.165814 55.845 -5.76193e-07 
523 1 0.392857 0.214286 0.0416667 55.845 -2.36695e-07 
524 1 0.392912 0.250009 0.0824443 55.845 -2.42529e-07 
525 1 0.428571 0.25 0.0416667 55.845 -1.72444e-07 
535 1 0.392857 0.142857 0.0416667 55.845 -1.17713e-07 
536 1 0.392891 0.178547 0.082411 55.845 1.71197e-07 
537 1 0.428571 0.178571 0.0416667 55.845 -4.20097e-08 
538 1 0.428641 0.214309 0.0823606 55.845 -1.04546e-08 
539 1 0.464286 0.214286 0.0416667 55.845 5.991e-08 
548 1 0.428605 0.142867 0.0823638 55.845 -1.03474e-07 
549 1 0.464286 0.142857 0.0416667 55.845 -2.70673e-07 
550 1 0.464367 0.178621 0.0824902 55.845 -4.21626e-07 
593 1 0.392857 0.25 0 55.845 -9.96481e-08 
599 1 0.392857 0.178571 0 55.845 2.5233e-07 
600 1 0.428571 0.214286 0 55.845 1.04382e-07 
3 1 -0.00011569 0.107159 0.457788 55.845 4.68513e-07 
7 1 -6.24722e-05 0.0356796 0.457672 55.845 5.50917e-07 
8 1 0.0356879 0.0714582 0.457498 55.845 5.73745e-07 
9 1 0.0714294 0.107166 0.457759 55.845 3.91663e-07 
13 1 0.0355466 1.79575e-05 0.457725 55.845 2.96326e-07 
14 1 0.0714179 0.0356571 0.457541 55.845 4.87702e-07 
15 1 0.107131 0.0714475 0.457456 55.845 5.59836e-07 
20 1 0.107061 2.56998e-05 0.457561 55.845 4.4384e-07 
55 1 -4.7377e-05 0.107111 0.374038 55.845 1.62319e-07 
63 1 6.1536e-05 0.0357787 0.374172 55.845 4.05955e-07 
64 1 -7.32971e-05 0.0714245 0.416068 55.845 -3.40626e-07 
65 1 0.0357139 0.0714582 0.374257 55.845 2.62341e-07 
66 1 0.0355668 0.107199 0.416039 55.845 -2.26297e-07 
67 1 0.0712616 0.107127 0.374162 55.845 3.37078e-07 
74 1 4.24541e-07 5.79715e-05 0.415762 55.845 -4.99102e-07 
75 1 0.0356347 2.85857e-05 0.374109 55.845 7.2142e-07 
76 1 0.0358038 0.0357011 0.415968 55.845 -4.28562e-07 
77 1 0.0714377 0.0357439 0.374227 55.845 6.27523e-07 
78 1 0.0714633 0.0714394 0.416053 55.845 -5.28136e-07 
79 1 0.107099 0.0714087 0.37419 55.845 5.66394e-07 
80 1 0.107096 0.107163 0.415956 55.845 -4.20521e-07 
88 1 0.0713777 9.49927e-06 0.416115 55.845 -4.4971e-07 
89 1 0.10699 -4.08532e-05 0.374112 55.845 4.90822e-07 
90 1 0.107254 0.0358249 0.415964 55.845 -4.97671e-07 
157 1 -8.50384e-05 0.107187 0.291653 55.845 3.81477e-08 
165 1 -4.96404e-05 0.0356489 0.291665 55.845 9.83088e-09 
166 1 3.58385e-05 0.0715325 0.333094 55.845 -5.17991e-07 
167 1 0.0357941 0.0715047 0.291545 55.845 1.97484e-07 
168 1 0.0356989 0.107192 0.333003 55.845 -1.17711e-07 
169 1 0.0714601 0.107242 0.291716 55.845 4.28647e-07 
176 1 5.65328e-06 3.13013e-05 0.333126 55.845 -2.65354e-07 
177 1 0.0356103 -4.05078e-05 0.291385 55.845 2.3503e-07 
178 1 0.0357447 0.035724 0.332998 55.845 -3.57228e-07 
179 1 0.0714327 0.0356911 0.291651 55.845 3.03108e-07 
180 1 0.0713878 0.0713475 0.333081 55.845 -1.63937e-07 
181 1 0.107071 0.0714526 0.291581 55.845 5.2158e-07 
182 1 0.107052 0.107091 0.333222 55.845 -8.11467e-08 
190 1 0.0713738 1.50229e-05 0.333142 55.845 -3.35212e-07 
191 1 0.107053 -1.86721e-05 0.291463 55.845 3.01409e-08 
192 1 0.107097 0.0356889 0.332852 55.845 -1.85066e-07 
268 1 -5.08784e-05 0.0714482 0.249354 55.845 -5.41178e-07 
270 1 0.0357121 0.107223 0.249489 55.845 -1.79802e-07 
278 1 7.67288e-06 6.79731e-05 0.249142 55.845 -5.9278e-08 
280 1 0.0356834 0.0358032 0.249306 55.845 -2.9225e-07 
282 1 0.0714312 0.0715366 0.249388 55.845 -7.93373e-08 
284 1 0.10702 0.107297 0.249291 55.845 1.0573e-07 
292 1 0.0714707 -1.97651e-05 0.249214 55.845 -8.3247e-08 
294 1 0.107146 0.0357185 0.249391 55.845 3.92095e-08 
16 1 0.142849 0.107102 0.457388 55.845 5.18385e-07 
21 1 0.142916 0.0356163 0.457543 55.845 4.4221e-07 
22 1 0.178496 0.0714953 0.457599 55.845 3.54861e-07 
23 1 0.214234 0.107134 0.457703 55.845 1.49697e-07 
27 1 0.178505 -3.68763e-05 0.457703 55.845 1.89799e-07 
28 1 0.214258 0.0357046 0.457563 55.845 2.71214e-07 
29 1 0.249945 0.0714332 0.457767 55.845 2.82489e-07 
81 1 0.142826 0.107119 0.374063 55.845 3.14735e-07 
91 1 0.142852 0.0357087 0.374069 55.845 5.63412e-07 
92 1 0.14292 0.071379 0.415957 55.845 -5.78371e-07 
93 1 0.17855 0.0715249 0.373983 55.845 4.36567e-07 
94 1 0.17857 0.107203 0.415996 55.845 -4.97766e-07 
95 1 0.214315 0.107185 0.374192 55.845 3.85109e-07 
102 1 0.142822 1.27545e-05 0.415879 55.845 -4.25984e-07 
103 1 0.178509 -7.78694e-05 0.374126 55.845 3.67102e-07 
104 1 0.178601 0.0357134 0.416015 55.845 -3.56386e-07 
105 1 0.214248 0.0357486 0.374087 55.845 4.32257e-07 
106 1 0.2143 0.0714962 0.416007 55.845 -4.50112e-07 
107 1 0.250012 0.0714212 0.373915 55.845 2.63606e-07 
108 1 0.249981 0.107112 0.41597 55.845 -4.48359e-07 
118 1 0.214292 2.14263e-05 0.415996 55.845 -2.81753e-07 
120 1 0.249917 0.0357463 0.415868 55.845 -2.8618e-07 
183 1 0.142822 0.107153 0.291431 55.845 1.39814e-07 
193 1 0.142886 0.0357185 0.291579 55.845 3.10098e-07 
194 1 0.142787 0.0714399 0.332985 55.845 -1.40959e-07 
195 1 0.178634 0.0714269 0.291607 55.845 1.37178e-07 
196 1 0.178527 0.107193 0.333111 55.845 -3.77018e-07 
197 1 0.214246 0.107115 0.291573 55.845 3.21341e-08 
204 1 0.142758 -1.20063e-05 0.333004 55.845 -2.34179e-07 
205 1 0.178586 4.12696e-05 0.291508 55.845 2.69943e-08 
206 1 0.178522 0.0356771 0.333174 55.845 -9.97993e-08 
207 1 0.214167 0.0356968 0.291562 55.845 6.14177e-09 
208 1 0.214191 0.071432 0.333137 55.845 -3.2333e-07 
209 1 0.249895 0.0713478 0.291531 55.845 1.70226e-07 
210 1 0.249992 0.107162 0.333113 55.845 -3.03756e-07 
220 1 0.214301 -3.2652e-05 0.333129 55.845 2.4832e-08 
222 1 0.249952 0.0356993 0.333146 55.845 -1.64355e-07 
296 1 0.14283 0.071508 0.249213 55.845 4.06421e-08 
298 1 0.178512 0.107025 0.249167 55.845 -2.25138e-07 
306 1 0.14277 -0.000106592 0.249496 55.845 -1.57979e-08 
308 1 0.178556 0.0356322 0.249411 55.845 -5.70089e-08 
310 1 0.214313 0.0713303 0.249161 55.845 -2.20109e-07 
312 1 0.249937 0.107124 0.249181 55.845 -1.24067e-07 
322 1 0.214276 -5.25679e-05 0.249338 55.845 2.36779e-08 
324 1 0.249872 0.0356818 0.249242 55.845 -1.78776e-07 
30 1 0.285715 0.107179 0.457652 55.845 2.15062e-07 
35 1 0.249939 2.03938e-06 0.45769 55.845 3.09787e-08 
36 1 0.285697 0.0357407 0.457664 55.845 3.63842e-07 
37 1 0.321439 0.0713699 0.4576 55.845 6.09493e-07 
38 1 0.357057 0.107136 0.457756 55.845 6.28399e-07 
42 1 0.321459 9.03523e-05 0.457673 55.845 4.97077e-07 
43 1 0.357091 0.0357188 0.457618 55.845 7.43018e-07 
109 1 0.285722 0.107242 0.374156 55.845 6.68085e-07 
119 1 0.250001 -6.85154e-06 0.374035 55.845 2.02721e-07 
121 1 0.285783 0.0357517 0.374186 55.845 3.0403e-07 
122 1 0.285707 0.0713852 0.415941 55.845 -4.52387e-07 
123 1 0.321324 0.0714586 0.373903 55.845 3.92767e-07 
124 1 0.321387 0.107134 0.416123 55.845 -5.25017e-07 
125 1 0.357026 0.107132 0.374112 55.845 4.88901e-07 
133 1 0.321327 -4.00732e-05 0.374241 55.845 2.50808e-07 
134 1 0.321414 0.0357555 0.415859 55.845 -4.61078e-07 
135 1 0.357158 0.035815 0.374006 55.845 4.96428e-07 
136 1 0.357083 0.0714138 0.415974 55.845 -6.84254e-07 
211 1 0.285609 0.10711 0.291476 55.845 2.43585e-07 
221 1 0.249868 8.17974e-05 0.291411 55.845 2.30693e-07 
223 1 0.285607 0.0356387 0.291486 55.845 4.34044e-07 
224 1 0.285681 0.0713801 0.332964 55.845 -2.77173e-07 
225 1 0.321375 0.071336 0.291458 55.845 4.15615e-07 
226 1 0.321391 0.107189 0.332901 55.845 -3.72705e-07 
227 1 0.35729 0.107165 0.291603 55.845 3.7343e-07 
235 1 0.321295 2.67692e-06 0.291602 55.845 3.81031e-07 
236 1 0.32138 0.0357712 0.332906 55.845 -2.59133e-07 
237 1 0.357166 0.0357026 0.291448 55.845 4.78586e-07 
238 1 0.357066 0.0714285 0.333013 55.845 -4.22039e-07 
326 1 0.28558 0.0714023 0.249276 55.845 -1.07306e-07 
328 1 0.321364 0.107188 0.249384 55.845 -2.22607e-07 
338 1 0.321323 0.0356346 0.249252 55.845 -1.91255e-07 
340 1 0.357128 0.071482 0.249177 55.845 -1.99028e-07 
44 1 0.392791 0.0715408 0.457633 55.845 5.82848e-07 
45 1 0.428562 0.107212 0.457565 55.845 3.67582e-07 
47 1 0.392821 0.000125865 0.457758 55.845 5.98712e-07 
48 1 0.428549 0.0358157 0.457654 55.845 4.48535e-07 
49 1 0.464259 0.0714175 0.457722 55.845 2.99495e-07 
50 1 0.464246 2.19568e-05 0.457752 55.845 4.12179e-07 
137 1 0.392812 0.0715204 0.374191 55.845 5.69536e-07 
138 1 0.392733 0.107209 0.415908 55.845 -6.23603e-07 
139 1 0.428622 0.107139 0.374247 55.845 6.06218e-07 
144 1 0.392793 4.24348e-05 0.374257 55.845 5.45263e-07 
145 1 0.392766 0.035723 0.415941 55.845 -6.85731e-07 
146 1 0.428481 0.035775 0.374157 55.845 6.97915e-07 
147 1 0.428502 0.071459 0.415966 55.845 -6.63121e-07 
148 1 0.464294 0.0714037 0.374269 55.845 6.86689e-07 
149 1 0.464316 0.107257 0.416027 55.845 -4.66636e-07 
150 1 0.428564 1.71474e-05 0.415966 55.845 -6.02784e-07 
151 1 0.464245 -4.51964e-06 0.374151 55.845 8.17108e-07 
152 1 0.464197 0.0356881 0.416048 55.845 -6.30026e-07 
239 1 0.392887 0.0713401 0.291541 55.845 6.32989e-07 
240 1 0.392854 0.10717 0.333123 55.845 -4.97029e-07 
241 1 0.428561 0.107156 0.291788 55.845 5.30904e-07 
246 1 0.392674 -1.03058e-05 0.291524 55.845 1.78881e-07 
247 1 0.392778 0.0356228 0.333044 55.845 -4.33758e-07 
248 1 0.428521 0.0357317 0.291639 55.845 3.69045e-07 
249 1 0.428577 0.0714183 0.333275 55.845 -4.88061e-07 
250 1 0.464208 0.0714186 0.291672 55.845 4.2188e-07 
251 1 0.464281 0.107197 0.333213 55.845 -3.65138e-07 
252 1 0.42849 5.0494e-06 0.333032 55.845 -6.63722e-07 
253 1 0.464286 -1.21838e-05 0.291777 55.845 2.01618e-07 
254 1 0.464299 0.0357464 0.333145 55.845 -6.44338e-07 
342 1 0.392956 0.107096 0.249443 55.845 -2.78847e-07 
349 1 0.392931 0.0356348 0.249319 55.845 -2.55621e-07 
351 1 0.428557 0.0713666 0.249516 55.845 -4.06997e-07 
353 1 0.464287 0.107058 0.24949 55.845 -3.43981e-07 
354 1 0.428583 -6.70442e-05 0.249343 55.845 -4.27632e-07 
356 1 0.464273 0.035576 0.249446 55.845 -3.56954e-07 
1 1 -2.83242e-06 0.178543 0.457706 55.845 -3.1289e-08 
2 1 0.0357781 0.214366 0.457604 55.845 2.49607e-07 
4 1 0.0357189 0.14303 0.457687 55.845 2.04639e-07 
5 1 0.0715144 0.178713 0.457848 55.845 2.28098e-07 
6 1 0.107172 0.21432 0.45761 55.845 2.31082e-07 
10 1 0.107191 0.142886 0.457635 55.845 3.91644e-07 
51 1 5.20556e-05 0.178505 0.374173 55.845 3.6944e-07 
52 1 9.15329e-05 0.214239 0.415969 55.845 -2.62296e-07 
53 1 0.0357751 0.214203 0.374205 55.845 1.64913e-07 
54 1 0.0356279 0.249942 0.416035 55.845 -8.84635e-08 
56 1 -7.63377e-05 0.14287 0.415996 55.845 -1.73258e-07 
57 1 0.0357557 0.142927 0.374135 55.845 2.30106e-07 
58 1 0.0357054 0.178626 0.416137 55.845 -2.3347e-07 
59 1 0.0714288 0.178635 0.374179 55.845 1.22589e-08 
60 1 0.071516 0.21436 0.416056 55.845 -1.52731e-07 
61 1 0.107098 0.214367 0.374229 55.845 -3.39809e-08 
62 1 0.107103 0.250064 0.416081 55.845 -1.35037e-07 
68 1 0.0713659 0.142925 0.416192 55.845 -2.8788e-07 
69 1 0.107092 0.142883 0.374169 55.845 1.27607e-07 
70 1 0.107219 0.178618 0.415967 55.845 -2.03777e-07 
153 1 5.02839e-05 0.178709 0.291611 55.845 4.44295e-07 
154 1 -1.6401e-05 0.214264 0.33324 55.845 1.2803e-07 
155 1 0.0357114 0.214313 0.291637 55.845 -1.35219e-07 
156 1 0.0355985 0.249966 0.333069 55.845 -1.22859e-07 
158 1 -3.152e-05 0.142908 0.332964 55.845 1.2476e-07 
159 1 0.0357459 0.142847 0.291663 55.845 3.76582e-07 
160 1 0.0357295 0.178554 0.333148 55.845 1.72077e-07 
161 1 0.0714533 0.178575 0.29165 55.845 1.41605e-07 
162 1 0.0713845 0.214342 0.33312 55.845 -5.01333e-09 
163 1 0.107089 0.214275 0.291528 55.845 -9.08545e-09 
164 1 0.107149 0.250032 0.333108 55.845 1.30848e-07 
170 1 0.0714122 0.142886 0.333083 55.845 1.01808e-07 
171 1 0.107292 0.142918 0.291702 55.845 3.1505e-07 
172 1 0.107143 0.178661 0.333236 55.845 -6.59142e-08 
256 1 -1.59001e-05 0.214292 0.249239 55.845 1.8182e-08 
258 1 0.0356908 0.250057 0.249352 55.845 -1.14739e-07 
260 1 -1.08664e-05 0.142893 0.249355 55.845 6.41304e-08 
262 1 0.035713 0.178684 0.249394 55.845 7.28239e-08 
264 1 0.0714151 0.214376 0.249455 55.845 -4.03432e-08 
266 1 0.107048 0.249965 0.249421 55.845 1.57975e-07 
272 1 0.0714369 0.142887 0.249392 55.845 1.25458e-07 
274 1 0.107117 0.178556 0.249321 55.845 -7.41198e-08 
11 1 0.142902 0.178559 0.457623 55.845 2.47504e-07 
12 1 0.178552 0.214235 0.457696 55.845 -4.74681e-08 
17 1 0.178537 0.142957 0.457527 55.845 2.75873e-07 
18 1 0.214173 0.178521 0.457653 55.845 -1.18073e-07 
19 1 0.250005 0.214329 0.457627 55.845 4.39499e-08 
24 1 0.24991 0.142874 0.457818 55.845 -1.30649e-07 
71 1 0.142931 0.178466 0.374073 55.845 9.44164e-08 
72 1 0.142824 0.214271 0.415935 55.845 -1.71396e-07 
73 1 0.178552 0.21436 0.374038 55.845 2.74978e-07 
82 1 0.142862 0.142916 0.415856 55.845 -3.79476e-07 
83 1 0.178594 0.14285 0.374133 55.845 3.80001e-07 
84 1 0.178595 0.178637 0.415989 55.845 -1.68565e-07 
85 1 0.214282 0.178649 0.374032 55.845 4.22376e-07 
86 1 0.214256 0.214249 0.415964 55.845 -2.93683e-07 
87 1 0.249981 0.214392 0.374061 55.845 3.39392e-07 
96 1 0.214311 0.14281 0.415972 55.845 -4.15257e-07 
97 1 0.249967 0.142966 0.374066 55.845 6.14765e-07 
98 1 0.25002 0.178641 0.415999 55.845 -4.51436e-07 
173 1 0.142876 0.178636 0.291603 55.845 -9.56287e-08 
174 1 0.142799 0.214257 0.333197 55.845 2.34879e-07 
175 1 0.178626 0.214258 0.291431 55.845 8.92083e-08 
184 1 0.142837 0.142872 0.333178 55.845 -3.65389e-07 
185 1 0.178537 0.142848 0.29151 55.845 -2.45643e-07 
186 1 0.178549 0.17857 0.333136 55.845 -1.97256e-07 
187 1 0.214202 0.1786 0.291545 55.845 -4.28343e-09 
188 1 0.214313 0.214356 0.333085 55.845 3.66241e-08 
189 1 0.24991 0.214308 0.291446 55.845 2.05466e-08 
198 1 0.214177 0.142984 0.333144 55.845 -2.65001e-07 
199 1 0.249966 0.142845 0.291484 55.845 1.12492e-07 
200 1 0.249941 0.178727 0.333064 55.845 -1.23304e-07 
276 1 0.142895 0.21429 0.249362 55.845 1.07667e-07 
286 1 0.142845 0.142911 0.249204 55.845 -2.17863e-07 
288 1 0.178588 0.178503 0.249213 55.845 -1.30442e-07 
290 1 0.21422 0.214382 0.249319 55.845 -1.72943e-08 
300 1 0.214223 0.142878 0.249307 55.845 -2.27391e-07 
302 1 0.249935 0.178565 0.249358 55.845 -9.04384e-08 
25 1 0.285732 0.178549 0.457798 55.845 -3.66049e-08 
26 1 0.321304 0.214273 0.457868 55.845 2.98796e-07 
31 1 0.3214 0.142842 0.457866 55.845 2.67734e-07 
32 1 0.357144 0.178615 0.457942 55.845 4.39537e-07 
99 1 0.285741 0.178519 0.374373 55.845 6.03487e-07 
100 1 0.285725 0.214364 0.415909 55.845 -3.26942e-07 
101 1 0.321301 0.214355 0.374205 55.845 3.89018e-07 
110 1 0.285709 0.14285 0.416154 55.845 -5.13768e-07 
111 1 0.321351 0.142857 0.374168 55.845 4.98458e-07 
112 1 0.321403 0.178616 0.416296 55.845 -5.15052e-07 
113 1 0.357056 0.178586 0.374187 55.845 3.84002e-07 
114 1 0.357109 0.214254 0.416115 55.845 -4.92904e-07 
126 1 0.356999 0.142816 0.416071 55.845 -7.0081e-07 
201 1 0.285617 0.17852 0.291494 55.845 6.3296e-08 
202 1 0.285744 0.214213 0.333131 55.845 -2.43603e-07 
203 1 0.321452 0.214343 0.291489 55.845 1.52944e-07 
212 1 0.285689 0.142904 0.332966 55.845 -1.56074e-07 
213 1 0.321355 0.142962 0.291485 55.845 2.34113e-07 
214 1 0.321321 0.178622 0.333188 55.845 -2.76762e-07 
215 1 0.357088 0.178574 0.29166 55.845 3.2888e-10 