ITEM: TIMESTEP
3100
ITEM: NUMBER OF ATOMS
5880
ITEM: BOX BOUNDS pp pp ff
-27.9972 27.9972
-27.9972 27.9972
0 34.092
ITEM: ATOMS id type xs ys zs mass q 
259 1 1.45286e-05 0.107126 0.208832 55.845 4.77026e-07 
267 1 1.48682e-05 0.0357103 0.208928 55.845 2.42893e-07 
269 1 0.0356623 0.0714348 0.208815 55.845 1.53032e-07 
271 1 0.0714101 0.107174 0.208816 55.845 2.92439e-07 
279 1 0.0357777 -4.42537e-05 0.208682 55.845 4.47796e-07 
281 1 0.0714613 0.0356692 0.208868 55.845 2.77324e-07 
283 1 0.107132 0.0713835 0.208751 55.845 -1.0725e-08 
293 1 0.107099 -2.98353e-05 0.208728 55.845 2.63445e-07 
361 1 1.20315e-05 0.107167 0.125138 55.845 1.509e-07 
369 1 8.68281e-06 0.0357116 0.125127 55.845 1.28716e-07 
370 1 -2.04021e-05 0.0714256 0.16662 55.845 -9.04429e-08 
371 1 0.0357542 0.0714437 0.125006 55.845 2.13234e-07 
372 1 0.0357023 0.107089 0.166523 55.845 5.89301e-08 
373 1 0.0715185 0.107111 0.125284 55.845 -1.06044e-07 
380 1 6.97085e-05 -1.85554e-05 0.166605 55.845 -5.13248e-08 
381 1 0.0356973 -0.000122546 0.125117 55.845 2.47539e-07 
382 1 0.03574 0.0356988 0.166683 55.845 -4.72002e-08 
383 1 0.0714755 0.0356377 0.124982 55.845 1.50491e-07 
384 1 0.0714002 0.071353 0.166617 55.845 3.32835e-07 
385 1 0.107171 0.0714315 0.125155 55.845 -9.86317e-08 
386 1 0.107259 0.10716 0.166641 55.845 -2.20281e-08 
394 1 0.0714476 -1.78775e-05 0.166412 55.845 1.07934e-07 
395 1 0.107192 -7.84934e-05 0.125004 55.845 3.30322e-08 
396 1 0.107169 0.0357172 0.166593 55.845 1.55237e-07 
463 1 0 0.107143 0.0416667 55.845 -5.18921e-08 
471 1 0 0.0357143 0.0416667 55.845 -1.46836e-07 
472 1 3.70699e-05 0.0714121 0.0836867 55.845 -1.80563e-07 
473 1 0.0357143 0.0714286 0.0416667 55.845 8.80707e-08 
474 1 0.0357301 0.107125 0.0834787 55.845 1.09847e-07 
475 1 0.0714286 0.107143 0.0416667 55.845 -2.10654e-08 
482 1 -1.11289e-05 -2.00775e-05 0.0835756 55.845 1.80024e-08 
483 1 0.0357143 0 0.0416667 55.845 -1.0973e-07 
484 1 0.0357478 0.0356097 0.0836558 55.845 1.05709e-07 
485 1 0.0714286 0.0357143 0.0416667 55.845 -1.54954e-07 
486 1 0.0714581 0.071487 0.0835395 55.845 1.05388e-07 
487 1 0.107143 0.0714286 0.0416667 55.845 -1.9429e-07 
488 1 0.107199 0.107145 0.0835812 55.845 1.07639e-07 
496 1 0.0713664 6.18989e-06 0.0835271 55.845 1.22671e-07 
497 1 0.107143 0 0.0416667 55.845 -1.01906e-07 
498 1 0.107125 0.0356812 0.0836338 55.845 1.22019e-07 
567 1 0 0.0714286 0 55.845 3.27447e-09 
568 1 0.0357143 0.107143 0 55.845 1.79609e-07 
572 1 0 0 0 55.845 5.68616e-08 
573 1 0.0357143 0.0357143 0 55.845 3.92512e-08 
574 1 0.0714286 0.0714286 0 55.845 1.77763e-07 
575 1 0.107143 0.107143 0 55.845 -1.23767e-07 
579 1 0.0714286 0 0 55.845 7.5953e-08 
580 1 0.107143 0.0357143 0 55.845 7.152e-08 
285 1 0.142889 0.107127 0.208775 55.845 2.43233e-07 
295 1 0.142887 0.0356549 0.20879 55.845 5.68463e-08 
297 1 0.178615 0.0713786 0.208729 55.845 1.36566e-07 
299 1 0.21434 0.107151 0.208772 55.845 3.93477e-07 
307 1 0.178622 -2.9637e-05 0.208837 55.845 3.01158e-07 
309 1 0.214286 0.0357215 0.208758 55.845 2.80138e-07 
311 1 0.250015 0.0715068 0.208794 55.845 -6.73181e-08 
387 1 0.142926 0.107124 0.125099 55.845 -9.25123e-08 
397 1 0.142892 0.0357049 0.12515 55.845 -7.15978e-08 
398 1 0.142911 0.071415 0.166611 55.845 2.52082e-07 
399 1 0.178639 0.0714975 0.124999 55.845 -3.63947e-08 
400 1 0.178623 0.107125 0.166665 55.845 5.03323e-08 
401 1 0.214344 0.107225 0.125084 55.845 1.99742e-07 
408 1 0.142915 7.55141e-05 0.166641 55.845 1.93813e-07 
409 1 0.178666 -3.54828e-05 0.12518 55.845 1.29e-07 
410 1 0.178575 0.0357473 0.166556 55.845 7.7952e-08 
411 1 0.214296 0.0357045 0.125172 55.845 1.24578e-07 
412 1 0.214301 0.0714783 0.1665 55.845 3.36001e-08 
413 1 0.249986 0.071452 0.125051 55.845 2.57041e-08 
414 1 0.250089 0.107152 0.16654 55.845 -1.43481e-07 
424 1 0.21432 -1.42592e-05 0.166632 55.845 2.78643e-07 
426 1 0.250061 0.0357116 0.166549 55.845 7.81233e-08 
489 1 0.142857 0.107143 0.0416667 55.845 -1.59152e-07 
499 1 0.142857 0.0357143 0.0416667 55.845 -2.85689e-07 
500 1 0.142916 0.0714899 0.0836154 55.845 -3.80893e-08 
501 1 0.178571 0.0714286 0.0416667 55.845 -2.77163e-07 
502 1 0.178623 0.107183 0.083653 55.845 1.09139e-07 
503 1 0.214286 0.107143 0.0416667 55.845 -1.51188e-07 
510 1 0.142808 4.79884e-05 0.0836402 55.845 1.17414e-07 
511 1 0.178571 0 0.0416667 55.845 -8.8177e-08 
512 1 0.178641 0.0357507 0.0835397 55.845 2.65828e-07 
513 1 0.214286 0.0357143 0.0416667 55.845 -6.16723e-08 
514 1 0.214301 0.0713681 0.0836017 55.845 -1.67158e-07 
515 1 0.25 0.0714286 0.0416667 55.845 -2.14631e-07 
516 1 0.250031 0.107163 0.083629 55.845 -1.53461e-07 
526 1 0.214261 2.87127e-05 0.0836504 55.845 6.02821e-08 
528 1 0.250001 0.0357127 0.0836318 55.845 -3.62192e-08 
581 1 0.142857 0.0714286 0 55.845 -6.12108e-08 
582 1 0.178571 0.107143 0 55.845 5.86352e-09 
586 1 0.142857 0 0 55.845 2.48635e-07 
587 1 0.178571 0.0357143 0 55.845 1.17686e-07 
588 1 0.214286 0.0714286 0 55.845 1.7125e-08 
589 1 0.25 0.107143 0 55.845 1.4048e-08 
594 1 0.214286 0 0 55.845 1.37929e-07 
595 1 0.25 0.0357143 0 55.845 6.6889e-08 
313 1 0.28568 0.107136 0.208723 55.845 3.45427e-07 
323 1 0.250088 -1.78369e-05 0.2086 55.845 5.11762e-07 
325 1 0.28578 0.0356818 0.208751 55.845 8.08102e-08 
327 1 0.321426 0.0714783 0.208817 55.845 -1.07204e-07 
329 1 0.357048 0.107212 0.208737 55.845 2.4223e-07 
337 1 0.321421 -5.05969e-05 0.208853 55.845 4.68414e-07 
339 1 0.357093 0.0357134 0.208783 55.845 2.05893e-07 
415 1 0.285804 0.107061 0.12499 55.845 3.88501e-08 
425 1 0.250075 -3.01278e-05 0.12507 55.845 3.35197e-07 
427 1 0.285723 0.0356369 0.125023 55.845 -2.73564e-07 
428 1 0.285718 0.0714113 0.166609 55.845 5.32381e-08 
429 1 0.321359 0.0714165 0.124954 55.845 -2.41138e-07 
430 1 0.321392 0.107167 0.166557 55.845 2.23804e-07 
431 1 0.357208 0.107171 0.125119 55.845 -7.28967e-08 
439 1 0.321388 -9.02343e-06 0.125041 55.845 6.20998e-08 
440 1 0.321404 0.0356994 0.166637 55.845 4.53435e-08 
441 1 0.357096 0.0356424 0.125059 55.845 -1.48197e-07 
442 1 0.357048 0.0714494 0.166552 55.845 3.22298e-07 
517 1 0.285714 0.107143 0.0416667 55.845 -2.34543e-07 
527 1 0.25 0 0.0416667 55.845 7.47278e-08 
529 1 0.285714 0.0357143 0.0416667 55.845 -3.15928e-07 
530 1 0.28573 0.0714223 0.0834406 55.845 -1.69932e-07 
531 1 0.321429 0.0714286 0.0416667 55.845 -3.53448e-07 
532 1 0.321506 0.107057 0.0835333 55.845 1.51792e-07 
533 1 0.357143 0.107143 0.0416667 55.845 -2.55413e-07 
603 1 0.357143 0.0714286 0 55.845 3.41179e-08 
541 1 0.321429 0 0.0416667 55.845 -1.0713e-07 
542 1 0.321477 0.035688 0.0835168 55.845 1.99091e-08 
543 1 0.357143 0.0357143 0.0416667 55.845 -1.21256e-07 
544 1 0.35714 0.0714328 0.0835463 55.845 9.30318e-08 
602 1 0.321429 0.0357143 0 55.845 4.26532e-09 
596 1 0.285714 0.0714286 0 55.845 7.87887e-09 
597 1 0.321429 0.107143 0 55.845 -5.50956e-08 
612 1 0.464286 0.0357143 0 55.845 -7.51658e-08 
611 1 0.428571 0 0 55.845 -3.63891e-08 
610 1 0.464286 0.107143 0 55.845 -8.24777e-08 
609 1 0.428571 0.0714286 0 55.845 -4.6512e-08 
608 1 0.392857 0.0357143 0 55.845 8.76682e-08 
341 1 0.392796 0.0714599 0.208804 55.845 1.2682e-07 
343 1 0.428528 0.107166 0.208853 55.845 3.43012e-07 
348 1 0.392836 1.11857e-05 0.208797 55.845 4.74142e-07 
350 1 0.428495 0.0357678 0.208869 55.845 4.19401e-07 
352 1 0.464253 0.0714178 0.208852 55.845 4.14575e-07 
355 1 0.464289 8.62292e-05 0.208798 55.845 5.67234e-07 
443 1 0.392852 0.0713874 0.125099 55.845 -9.68978e-08 
444 1 0.392886 0.107034 0.166646 55.845 -5.08921e-08 
445 1 0.428637 0.107103 0.125154 55.845 -6.29901e-08 
604 1 0.392857 0.107143 0 55.845 -2.69039e-08 
450 1 0.392814 3.19264e-05 0.125141 55.845 2.58435e-08 
451 1 0.392817 0.0357933 0.166707 55.845 2.87771e-08 
452 1 0.428595 0.0357738 0.125145 55.845 1.21204e-07 
453 1 0.42849 0.0714438 0.16667 55.845 -1.35038e-07 
454 1 0.464243 0.0715135 0.125122 55.845 1.51882e-07 
455 1 0.464265 0.107223 0.166642 55.845 -2.81441e-07 
456 1 0.428525 6.14578e-05 0.166724 55.845 -2.05624e-07 
457 1 0.46429 -1.21749e-05 0.125082 55.845 2.56485e-07 
458 1 0.464329 0.0357399 0.166594 55.845 -2.35621e-07 
545 1 0.392857 0.0714286 0.0416667 55.845 -6.44005e-08 
546 1 0.392838 0.107088 0.0835793 55.845 -6.49262e-08 
547 1 0.428571 0.107143 0.0416667 55.845 -8.78999e-08 
552 1 0.392857 0 0.0416667 55.845 -1.00976e-07 
553 1 0.392839 0.0357152 0.0835914 55.845 2.95258e-07 
554 1 0.428571 0.0357143 0.0416667 55.845 -7.81711e-08 
555 1 0.428567 0.0714578 0.0836572 55.845 -2.07233e-07 
556 1 0.464286 0.0714286 0.0416667 55.845 5.47514e-08 
557 1 0.464255 0.107172 0.083601 55.845 -2.32961e-07 
558 1 0.428526 5.18037e-06 0.0836122 55.845 1.49758e-09 
559 1 0.464286 0 0.0416667 55.845 -2.88143e-08 
560 1 0.464253 0.0357074 0.0836705 55.845 -1.72119e-08 
255 1 3.31649e-05 0.178583 0.208717 55.845 3.85979e-07 
257 1 0.0357237 0.214291 0.208809 55.845 8.98703e-09 
261 1 0.0357371 0.142808 0.208938 55.845 5.21142e-07 
263 1 0.0714338 0.178563 0.208744 55.845 3.27367e-07 
265 1 0.107178 0.214268 0.208765 55.845 2.5418e-07 
273 1 0.107189 0.142898 0.208739 55.845 3.54496e-07 
357 1 3.37518e-05 0.178595 0.125167 55.845 3.85993e-07 
358 1 7.33473e-05 0.214241 0.166643 55.845 -1.23541e-07 
359 1 0.0357192 0.214315 0.125077 55.845 3.37719e-07 
360 1 0.0357433 0.249932 0.166658 55.845 -8.70783e-08 
362 1 3.07532e-05 0.142878 0.166714 55.845 2.92633e-08 
363 1 0.0357426 0.142917 0.124966 55.845 3.3486e-07 
364 1 0.0357651 0.178474 0.166595 55.845 8.56999e-08 
365 1 0.0714321 0.178556 0.125166 55.845 2.1477e-07 
366 1 0.071445 0.214254 0.166662 55.845 9.44252e-08 
367 1 0.107147 0.214309 0.125094 55.845 3.35736e-08 
368 1 0.107148 0.249982 0.16661 55.845 6.8114e-08 
374 1 0.0714125 0.142878 0.166609 55.845 2.48473e-07 
375 1 0.107164 0.142902 0.125137 55.845 -1.89955e-07 
376 1 0.107219 0.178621 0.16658 55.845 -1.63776e-07 
459 1 0 0.178571 0.0416667 55.845 -1.46683e-07 
460 1 4.05814e-06 0.214395 0.0835599 55.845 -2.84147e-07 
461 1 0.0357143 0.214286 0.0416667 55.845 4.99721e-08 
462 1 0.035738 0.24995 0.0836473 55.845 -1.83027e-09 
464 1 7.86667e-06 0.142893 0.0836389 55.845 -9.62939e-08 
465 1 0.0357143 0.142857 0.0416667 55.845 -1.03042e-07 
466 1 0.035791 0.17866 0.0835891 55.845 -1.14995e-07 
467 1 0.0714286 0.178571 0.0416667 55.845 -5.79227e-08 
468 1 0.0714497 0.214291 0.0835525 55.845 -2.92613e-08 
469 1 0.107143 0.214286 0.0416667 55.845 -1.23726e-07 
470 1 0.107162 0.250037 0.0836035 55.845 5.47642e-08 
476 1 0.0714704 0.142815 0.0836424 55.845 -1.26945e-08 
477 1 0.107143 0.142857 0.0416667 55.845 -2.73522e-07 
478 1 0.10716 0.178647 0.0835496 55.845 -7.66117e-08 
561 1 0 0.214286 0 55.845 -1.24921e-07 
562 1 0.0357143 0.25 0 55.845 2.35125e-07 
563 1 0 0.142857 0 55.845 1.07925e-07 
564 1 0.0357143 0.178571 0 55.845 6.61387e-09 
565 1 0.0714286 0.214286 0 55.845 2.42152e-07 
566 1 0.107143 0.25 0 55.845 2.38116e-08 
569 1 0.0714286 0.142857 0 55.845 4.96133e-08 
570 1 0.107143 0.178571 0 55.845 -7.70538e-08 
275 1 0.142867 0.178545 0.208773 55.845 3.60675e-07 
277 1 0.178526 0.214287 0.208803 55.845 3.61344e-07 
287 1 0.178593 0.142856 0.208803 55.845 6.65768e-07 
289 1 0.214298 0.178638 0.208798 55.845 6.43977e-07 
291 1 0.250071 0.214222 0.208777 55.845 4.14924e-07 
301 1 0.250069 0.142858 0.208663 55.845 5.66178e-07 
377 1 0.142889 0.178596 0.125107 55.845 1.11749e-07 
378 1 0.142902 0.2143 0.166698 55.845 -1.84482e-07 
379 1 0.178606 0.214327 0.125093 55.845 3.34243e-07 
388 1 0.142867 0.142895 0.1666 55.845 -2.714e-08 
389 1 0.178528 0.14291 0.124993 55.845 3.79828e-07 
390 1 0.178596 0.178563 0.166654 55.845 -3.84205e-07 
391 1 0.214266 0.178592 0.125048 55.845 5.24184e-07 
392 1 0.214277 0.214318 0.166684 55.845 -4.25872e-07 
393 1 0.250083 0.214259 0.125068 55.845 2.58072e-07 
402 1 0.214264 0.14291 0.166587 55.845 -2.147e-07 
403 1 0.250032 0.142872 0.124964 55.845 3.68934e-07 
404 1 0.250009 0.178537 0.166435 55.845 -4.59197e-07 
479 1 0.142857 0.178571 0.0416667 55.845 -6.52606e-08 
480 1 0.142923 0.214246 0.0834908 55.845 -2.34963e-07 
481 1 0.178571 0.214286 0.0416667 55.845 -2.63138e-08 
490 1 0.142806 0.142887 0.0836879 55.845 4.88409e-08 
491 1 0.178571 0.142857 0.0416667 55.845 -1.34604e-08 
492 1 0.178491 0.178587 0.0834871 55.845 -1.57308e-07 
493 1 0.214286 0.178571 0.0416667 55.845 -6.83626e-08 
494 1 0.214361 0.214229 0.0836749 55.845 -4.94874e-07 
495 1 0.25 0.214286 0.0416667 55.845 -6.55036e-08 
504 1 0.2143 0.142923 0.0835295 55.845 -2.39076e-07 
505 1 0.25 0.142857 0.0416667 55.845 -6.55914e-08 
506 1 0.250068 0.178549 0.0835299 55.845 -2.26884e-07 
571 1 0.142857 0.214286 0 55.845 1.10908e-07 
576 1 0.142857 0.142857 0 55.845 1.16508e-07 
577 1 0.178571 0.178571 0 55.845 -2.17588e-08 
578 1 0.214286 0.214286 0 55.845 -2.24021e-07 
583 1 0.214286 0.142857 0 55.845 1.10158e-07 
584 1 0.25 0.178571 0 55.845 -8.06411e-08 
303 1 0.285732 0.178556 0.208635 55.845 3.33416e-07 
305 1 0.321379 0.214276 0.20869 55.845 1.46657e-07 
315 1 0.321467 0.142877 0.208772 55.845 3.97649e-07 
317 1 0.357112 0.178564 0.208721 55.845 2.82506e-07 
405 1 0.285671 0.178531 0.12505 55.845 1.77141e-07 
406 1 0.285724 0.21423 0.166546 55.845 -2.13409e-07 
407 1 0.321407 0.21434 0.125067 55.845 -1.80149e-09 
416 1 0.285665 0.142818 0.166491 55.845 -1.91625e-07 
417 1 0.321452 0.142788 0.124909 55.845 1.91183e-08 
418 1 0.321412 0.178555 0.166489 55.845 -2.44352e-07 
419 1 0.357166 0.178615 0.125058 55.845 1.43437e-07 
420 1 0.357122 0.214326 0.166547 55.845 -8.95632e-08 
432 1 0.357114 0.14291 0.166581 55.845 -1.80868e-09 
507 1 0.285714 0.178571 0.0416667 55.845 -3.58309e-08 
508 1 0.285698 0.214236 0.0834734 55.845 -3.77172e-08 
509 1 0.321429 0.214286 0.0416667 55.845 -1.28003e-07 
518 1 0.285736 0.142856 0.0834234 55.845 3.01085e-08 
519 1 0.321429 0.142857 0.0416667 55.845 -3.18285e-07 
520 1 0.321477 0.178588 0.0835591 55.845 -1.61992e-07 
521 1 0.357143 0.178571 0.0416667 55.845 -2.63561e-07 
522 1 0.357113 0.214316 0.0835721 55.845 -1.81559e-08 
534 1 0.357208 0.142893 0.0835846 55.845 -5.83288e-08 
585 1 0.285714 0.214286 0 55.845 3.60307e-08 
590 1 0.285714 0.142857 0 55.845 8.57908e-08 
591 1 0.321429 0.178571 0 55.845 1.04165e-07 
592 1 0.357143 0.214286 0 55.845 1.87662e-08 
598 1 0.357143 0.142857 0 55.845 -7.18115e-08 
319 1 0.392885 0.214285 0.208745 55.845 2.65905e-07 
321 1 0.428613 0.250002 0.208699 55.845 3.4602e-07 
331 1 0.392847 0.142885 0.208716 55.845 3.45591e-07 
333 1 0.428609 0.178633 0.20877 55.845 2.35716e-07 
335 1 0.464241 0.21428 0.208651 55.845 2.03724e-07 
345 1 0.464264 0.142875 0.208797 55.845 5.50581e-07 
606 1 0.464286 0.178571 0 55.845 -3.90587e-08 
421 1 0.392944 0.214308 0.125093 55.845 3.99792e-07 
422 1 0.392826 0.249982 0.16682 55.845 8.64422e-08 
423 1 0.428556 0.250031 0.125021 55.845 1.81621e-07 
433 1 0.392876 0.142829 0.125128 55.845 2.03114e-07 
434 1 0.39286 0.178596 0.16662 55.845 -1.62608e-07 
435 1 0.42857 0.178593 0.125055 55.845 4.61206e-07 
436 1 0.428607 0.214264 0.166612 55.845 -1.43528e-07 
437 1 0.464293 0.214278 0.125175 55.845 3.47751e-07 
605 1 0.428571 0.142857 0 55.845 -6.96642e-08 
446 1 0.428608 0.142861 0.166705 55.845 -2.92588e-07 
447 1 0.464287 0.142927 0.125196 55.845 1.81663e-07 
448 1 0.464281 0.178513 0.166733 55.845 -1.66523e-07 
523 1 0.392857 0.214286 0.0416667 55.845 -1.80189e-07 
524 1 0.392878 0.24993 0.0836468 55.845 -1.66663e-07 
525 1 0.428571 0.25 0.0416667 55.845 -1.29915e-07 
535 1 0.392857 0.142857 0.0416667 55.845 -1.34864e-07 
536 1 0.39285 0.17863 0.0836179 55.845 -1.417e-07 
537 1 0.428571 0.178571 0.0416667 55.845 -1.54898e-07 
538 1 0.428667 0.214317 0.0835398 55.845 -3.02431e-07 
539 1 0.464286 0.214286 0.0416667 55.845 -1.1241e-07 
548 1 0.428622 0.142881 0.0835856 55.845 -2.0051e-07 
549 1 0.464286 0.142857 0.0416667 55.845 4.54934e-09 
550 1 0.464382 0.178621 0.0836606 55.845 -2.52434e-07 
593 1 0.392857 0.25 0 55.845 1.2194e-07 
599 1 0.392857 0.178571 0 55.845 4.01176e-08 
600 1 0.428571 0.214286 0 55.845 -2.84865e-08 
3 1 5.3979e-05 0.107144 0.458032 55.845 2.01525e-08 
7 1 -9.24293e-06 0.0357287 0.457876 55.845 -2.25612e-08 
8 1 0.0357144 0.0714308 0.457953 55.845 -1.9915e-07 
9 1 0.0715313 0.107152 0.457862 55.845 2.07762e-08 
13 1 0.0356159 3.37207e-05 0.457978 55.845 -2.1026e-07 
14 1 0.0714245 0.035703 0.458 55.845 -2.85623e-07 
15 1 0.107217 0.0714668 0.457959 55.845 -1.84872e-07 
20 1 0.107119 -3.11453e-05 0.458051 55.845 -4.9241e-08 
55 1 3.42372e-05 0.107143 0.374161 55.845 -1.79701e-07 
63 1 1.19684e-05 0.0356606 0.374325 55.845 -2.84597e-07 
64 1 1.89015e-05 0.0714236 0.416015 55.845 2.61844e-07 
65 1 0.0357013 0.0714746 0.374227 55.845 -1.70595e-07 
66 1 0.0357022 0.107101 0.416065 55.845 3.05941e-07 
67 1 0.0713807 0.107149 0.374254 55.845 -1.36632e-08 
74 1 -7.52281e-05 -1.06017e-05 0.415985 55.845 5.35485e-07 
75 1 0.035745 3.44068e-05 0.37427 55.845 -2.05372e-07 
76 1 0.0356808 0.0357207 0.415935 55.845 3.69481e-07 
77 1 0.0713843 0.0356527 0.374186 55.845 -1.35303e-07 
78 1 0.0714014 0.0713982 0.416031 55.845 1.97676e-07 
79 1 0.107127 0.0714054 0.374254 55.845 -1.25516e-07 
80 1 0.107167 0.107102 0.415941 55.845 3.83986e-07 
88 1 0.0714503 -3.25349e-05 0.415998 55.845 3.15156e-07 
89 1 0.107164 3.37134e-05 0.374262 55.845 -1.1756e-07 
90 1 0.107162 0.035775 0.415982 55.845 2.50218e-07 
157 1 3.91636e-05 0.107084 0.29229 55.845 1.32962e-08 
165 1 4.21363e-05 0.035709 0.292233 55.845 -1.68048e-07 
166 1 3.3684e-05 0.0713659 0.332913 55.845 -2.12765e-07 
167 1 0.0357874 0.0714023 0.29234 55.845 -5.28135e-08 
168 1 0.0357348 0.107057 0.332981 55.845 1.06385e-07 
169 1 0.0714573 0.107109 0.292264 55.845 -1.63087e-08 
176 1 -1.67114e-05 3.39349e-05 0.332944 55.845 1.46623e-07 
177 1 0.0357594 -4.52908e-05 0.292333 55.845 -1.24635e-07 
178 1 0.0357582 0.0357191 0.332943 55.845 -1.17487e-08 
179 1 0.0714918 0.0356726 0.292271 55.845 -2.99406e-08 
180 1 0.0715129 0.0713259 0.332966 55.845 -1.35822e-07 
181 1 0.107149 0.0714317 0.292259 55.845 -8.21459e-08 
182 1 0.107113 0.107082 0.332984 55.845 3.90624e-08 
190 1 0.0715012 -3.05926e-05 0.332944 55.845 1.91239e-07 
191 1 0.107176 -3.95021e-05 0.292288 55.845 -2.02901e-08 
192 1 0.107219 0.0356885 0.33298 55.845 -1.08068e-07 
268 1 -1.65882e-06 0.07136 0.250994 55.845 -2.94016e-07 
270 1 0.0358022 0.10709 0.250943 55.845 5.20423e-08 
278 1 4.1616e-05 2.95984e-05 0.250918 55.845 4.02144e-08 
280 1 0.0357214 0.0356547 0.250872 55.845 2.26918e-07 
282 1 0.0713931 0.0714007 0.250855 55.845 1.24961e-07 
284 1 0.107182 0.107161 0.250886 55.845 -1.61571e-08 
292 1 0.0714459 1.03604e-05 0.25091 55.845 -3.99961e-09 
294 1 0.107173 0.035685 0.250937 55.845 2.86553e-07 
16 1 0.142943 0.107163 0.458041 55.845 -2.3315e-07 
21 1 0.14283 0.0357873 0.457887 55.845 -1.19388e-07 
22 1 0.178579 0.071425 0.457938 55.845 -2.43559e-07 
23 1 0.214401 0.107107 0.458022 55.845 -2.20528e-07 
27 1 0.178628 9.47625e-06 0.457853 55.845 -7.10931e-08 
28 1 0.214346 0.0357157 0.457839 55.845 -8.64738e-08 
29 1 0.250081 0.0714462 0.457956 55.845 -4.34344e-08 
81 1 0.142865 0.107144 0.374332 55.845 -1.65093e-07 
91 1 0.14291 0.035685 0.374162 55.845 -3.26496e-08 
92 1 0.142947 0.0714955 0.415939 55.845 3.78972e-08 
93 1 0.178584 0.0714697 0.374135 55.845 -3.79362e-09 
94 1 0.178606 0.107083 0.416018 55.845 1.69715e-07 
95 1 0.214293 0.107141 0.374286 55.845 -2.34133e-08 
102 1 0.142829 3.2804e-05 0.416038 55.845 2.24295e-07 
103 1 0.178558 2.48476e-05 0.374267 55.845 -1.89345e-07 
104 1 0.178604 0.0357666 0.415782 55.845 1.17896e-07 
105 1 0.214334 0.0357519 0.374152 55.845 -4.8399e-08 
106 1 0.214373 0.0714639 0.415845 55.845 -1.59122e-07 
107 1 0.250003 0.0715495 0.374183 55.845 -2.79732e-08 
108 1 0.249999 0.107195 0.416013 55.845 -1.20856e-08 
118 1 0.214331 -2.17561e-05 0.415826 55.845 1.79461e-07 
120 1 0.249972 0.0357425 0.415738 55.845 -5.09303e-08 
183 1 0.142832 0.107147 0.292332 55.845 -2.18805e-07 
193 1 0.142874 0.0356676 0.292345 55.845 -1.12536e-07 
194 1 0.142836 0.0714282 0.332938 55.845 -6.94623e-08 
195 1 0.178576 0.0714691 0.292079 55.845 -3.40886e-08 
196 1 0.178617 0.107104 0.332951 55.845 8.51743e-08 
197 1 0.214331 0.107121 0.292183 55.845 2.3811e-08 
204 1 0.142902 -2.7803e-05 0.33305 55.845 1.8526e-07 
205 1 0.178621 -2.65231e-05 0.292317 55.845 -1.04759e-07 
206 1 0.178673 0.035765 0.332989 55.845 -3.46797e-08 
207 1 0.21434 0.0356786 0.292157 55.845 -1.87431e-07 
208 1 0.214348 0.071414 0.332897 55.845 -1.11983e-07 
209 1 0.250081 0.0714909 0.292186 55.845 -1.7338e-07 
210 1 0.250007 0.107166 0.333093 55.845 -2.75058e-08 
220 1 0.214271 -7.23665e-05 0.333008 55.845 5.59711e-08 
222 1 0.250103 0.0356803 0.332991 55.845 -1.14984e-07 
296 1 0.142821 0.0713825 0.25091 55.845 8.76651e-08 
298 1 0.17856 0.107174 0.250906 55.845 1.70924e-07 
306 1 0.142796 -9.59707e-05 0.250909 55.845 -4.15898e-08 
308 1 0.178564 0.0357197 0.250938 55.845 3.05685e-08 
310 1 0.214311 0.0714589 0.25082 55.845 -8.66129e-08 
312 1 0.250097 0.107153 0.250947 55.845 -3.23501e-08 
322 1 0.214393 -5.066e-05 0.250857 55.845 -6.46156e-08 
324 1 0.250044 0.0356901 0.250875 55.845 1.42968e-08 
30 1 0.285744 0.107235 0.457972 55.845 6.16395e-09 
35 1 0.249986 -1.72352e-05 0.457838 55.845 -1.56227e-07 
36 1 0.285715 0.0357693 0.457974 55.845 -1.41253e-07 
37 1 0.321471 0.0715392 0.457952 55.845 5.13056e-08 
38 1 0.357224 0.107162 0.457964 55.845 -8.6022e-08 
42 1 0.321449 -3.29103e-05 0.457911 55.845 -5.84351e-08 
43 1 0.357147 0.0358257 0.457879 55.845 -1.46387e-07 
109 1 0.28575 0.107181 0.374318 55.845 9.14594e-08 
119 1 0.250006 -1.80746e-05 0.374239 55.845 -2.51327e-07 
121 1 0.285702 0.0357034 0.374289 55.845 1.199e-07 
122 1 0.285752 0.0714707 0.415939 55.845 -6.24156e-08 
123 1 0.321428 0.0715084 0.374314 55.845 3.04181e-07 
124 1 0.321499 0.107208 0.416 55.845 -3.49824e-09 
125 1 0.35718 0.107159 0.374376 55.845 2.6018e-07 
133 1 0.321396 2.63064e-05 0.374313 55.845 1.0197e-07 
134 1 0.321469 0.0357447 0.416092 55.845 7.19871e-08 
135 1 0.35712 0.0357517 0.374222 55.845 2.26376e-07 
136 1 0.357127 0.0714525 0.415882 55.845 -1.8849e-07 
211 1 0.285691 0.107278 0.292328 55.845 -2.70389e-07 
221 1 0.249997 -3.92086e-05 0.292201 55.845 -1.10115e-07 
223 1 0.285779 0.0357696 0.292299 55.845 -1.21144e-07 
224 1 0.285744 0.0714611 0.333024 55.845 -1.90429e-07 
225 1 0.321483 0.0714908 0.292233 55.845 -2.19749e-07 
226 1 0.321461 0.1071 0.332988 55.845 2.7741e-08 
227 1 0.357146 0.107146 0.29222 55.845 -1.55128e-07 
235 1 0.32144 2.30655e-06 0.292281 55.845 -7.57384e-08 
236 1 0.321417 0.0357119 0.33301 55.845 -1.85621e-07 
237 1 0.357154 0.0357434 0.292259 55.845 -1.97831e-07 
238 1 0.357129 0.071412 0.332967 55.845 -4.25845e-07 
326 1 0.285793 0.0714438 0.25093 55.845 -7.60118e-08 
328 1 0.321427 0.107161 0.250866 55.845 1.24012e-07 
338 1 0.321468 0.0357523 0.250814 55.845 1.89688e-08 
340 1 0.357184 0.0714939 0.250824 55.845 1.83608e-08 
44 1 0.392847 0.071379 0.457874 55.845 -3.55219e-07 
45 1 0.428537 0.107138 0.457923 55.845 -1.26174e-07 
47 1 0.392865 5.32359e-05 0.457892 55.845 1.98689e-07 
48 1 0.428574 0.0356411 0.457914 55.845 -3.89095e-08 
49 1 0.46431 0.0714023 0.457807 55.845 -9.36123e-08 
50 1 0.464279 8.54755e-07 0.457871 55.845 1.74093e-07 
137 1 0.392813 0.0714275 0.374233 55.845 5.10111e-08 
138 1 0.392842 0.10719 0.415777 55.845 8.37794e-08 
139 1 0.428602 0.107259 0.374119 55.845 1.10486e-08 
144 1 0.392854 -8.27267e-06 0.374191 55.845 3.28116e-07 
145 1 0.392895 0.0357862 0.415814 55.845 -6.70328e-08 
146 1 0.428564 0.0357838 0.374177 55.845 4.86037e-08 
147 1 0.42855 0.0714414 0.415844 55.845 1.74377e-07 
148 1 0.464261 0.071458 0.374156 55.845 -4.524e-08 
149 1 0.464281 0.107133 0.415941 55.845 4.83753e-07 
150 1 0.428617 1.49157e-05 0.415885 55.845 1.47266e-07 
151 1 0.46429 2.03856e-05 0.37414 55.845 2.55351e-07 
152 1 0.464285 0.0357461 0.415941 55.845 1.16202e-07 
239 1 0.392836 0.0714709 0.29228 55.845 -2.05102e-07 
240 1 0.392904 0.107198 0.33293 55.845 -4.09317e-08 
241 1 0.428554 0.107221 0.292206 55.845 -1.5217e-07 
246 1 0.392887 -7.32688e-05 0.292165 55.845 1.36446e-08 
247 1 0.392829 0.035718 0.33286 55.845 -3.42034e-07 
248 1 0.42859 0.0357116 0.292205 55.845 -1.78511e-07 
249 1 0.428624 0.0715091 0.333 55.845 -1.62562e-07 
250 1 0.464265 0.0714873 0.292299 55.845 -1.83686e-07 
251 1 0.464229 0.107275 0.332929 55.845 7.86933e-08 
252 1 0.428615 6.9693e-05 0.333067 55.845 -3.90957e-07 
253 1 0.464278 -6.03156e-05 0.292202 55.845 1.14142e-07 
254 1 0.464297 0.0356942 0.33298 55.845 -4.03319e-07 
342 1 0.392824 0.107207 0.250828 55.845 6.57352e-08 
349 1 0.392841 0.0357076 0.250883 55.845 7.17357e-08 
351 1 0.428567 0.0714623 0.250923 55.845 -9.01331e-08 
353 1 0.464264 0.107111 0.250846 55.845 -2.16624e-07 
354 1 0.428607 -4.18173e-05 0.250949 55.845 -2.04421e-07 
356 1 0.464314 0.0356496 0.250848 55.845 -2.07398e-07 
1 1 -0.00010343 0.178573 0.457835 55.845 1.39048e-08 
2 1 0.0357376 0.214325 0.457913 55.845 -1.40033e-07 
4 1 0.0356896 0.14285 0.457812 55.845 -4.05309e-08 
5 1 0.0713583 0.178608 0.457967 55.845 -1.53887e-07 
6 1 0.107163 0.214303 0.457931 55.845 -2.0673e-07 
10 1 0.107158 0.142858 0.457882 55.845 -8.31026e-08 
51 1 1.24511e-06 0.178581 0.374339 55.845 8.88316e-08 
52 1 -3.96908e-05 0.214305 0.415911 55.845 2.71116e-07 
53 1 0.0357979 0.214372 0.374314 55.845 1.3787e-07 
54 1 0.0356748 0.250038 0.415948 55.845 1.74638e-07 
56 1 7.92624e-06 0.14279 0.415848 55.845 2.09582e-07 
57 1 0.0357499 0.142881 0.374197 55.845 -5.97003e-08 
58 1 0.0357013 0.178617 0.415998 55.845 2.55971e-07 
59 1 0.0714004 0.178578 0.374242 55.845 1.14209e-08 
60 1 0.071435 0.214325 0.416022 55.845 1.17026e-08 
61 1 0.107216 0.214312 0.374245 55.845 1.36024e-07 
62 1 0.107168 0.250002 0.415905 55.845 5.79635e-08 
68 1 0.0713785 0.142921 0.415892 55.845 3.99268e-07 
69 1 0.107089 0.142899 0.374208 55.845 -2.80451e-08 
70 1 0.107111 0.178617 0.41592 55.845 2.17237e-07 
153 1 -1.19076e-05 0.178523 0.292243 55.845 1.30557e-07 
154 1 3.48547e-05 0.214324 0.332931 55.845 -1.55512e-07 
155 1 0.0357445 0.214253 0.292301 55.845 -1.34792e-07 
156 1 0.0357434 0.250071 0.332983 55.845 -9.43063e-08 
158 1 8.33596e-05 0.142866 0.332799 55.845 2.97654e-08 
159 1 0.0357728 0.142812 0.292299 55.845 2.40626e-07 
160 1 0.0357467 0.178621 0.332973 55.845 -1.63597e-07 
161 1 0.0714506 0.178603 0.292237 55.845 6.06894e-08 
162 1 0.0714753 0.214329 0.332904 55.845 -3.07918e-07 
163 1 0.107202 0.214273 0.292146 55.845 -3.80953e-08 
164 1 0.107178 0.249943 0.333071 55.845 -1.97197e-07 
170 1 0.0714107 0.142879 0.333012 55.845 2.01522e-07 
171 1 0.107168 0.142876 0.292292 55.845 -2.40936e-08 
172 1 0.107141 0.178683 0.332968 55.845 -1.39511e-08 
256 1 5.47151e-05 0.214278 0.250858 55.845 -3.27945e-07 
258 1 0.035764 0.249987 0.25098 55.845 -1.02578e-07 
260 1 2.57044e-05 0.142848 0.250895 55.845 -2.64674e-07 
262 1 0.0357527 0.178549 0.250829 55.845 -1.38537e-07 
264 1 0.0714523 0.21429 0.250853 55.845 -2.32027e-07 
266 1 0.107161 0.25005 0.25096 55.845 -1.52738e-07 
272 1 0.0714826 0.142927 0.250802 55.845 4.47625e-09 
274 1 0.107211 0.178525 0.250976 55.845 -5.70644e-08 
11 1 0.142866 0.178575 0.457933 55.845 -1.64055e-07 
12 1 0.178607 0.214263 0.457983 55.845 -2.99082e-07 
17 1 0.178686 0.142862 0.457908 55.845 -2.92481e-07 
18 1 0.214359 0.178568 0.45795 55.845 -1.83098e-07 
19 1 0.250058 0.214295 0.457964 55.845 -3.80457e-07 
24 1 0.250036 0.142865 0.458012 55.845 -8.66577e-08 
71 1 0.142893 0.178558 0.374225 55.845 -1.97094e-07 
72 1 0.142828 0.214267 0.416058 55.845 -2.21592e-08 
73 1 0.17857 0.214281 0.37431 55.845 -1.31432e-07 
82 1 0.142882 0.142789 0.415935 55.845 3.18215e-07 
83 1 0.178621 0.142835 0.37423 55.845 -1.28571e-07 
84 1 0.178555 0.178534 0.415944 55.845 3.99239e-07 
85 1 0.21426 0.178631 0.374237 55.845 -2.20942e-07 
86 1 0.214342 0.214259 0.415959 55.845 3.64873e-07 
87 1 0.250022 0.214281 0.374262 55.845 -3.31249e-07 
96 1 0.214356 0.142832 0.415995 55.845 4.05973e-07 
97 1 0.250074 0.142914 0.374344 55.845 -1.45552e-07 
98 1 0.250004 0.178591 0.415887 55.845 4.76389e-07 
173 1 0.142893 0.178579 0.292244 55.845 -1.19838e-07 
174 1 0.142905 0.214268 0.333096 55.845 -2.17435e-07 
175 1 0.178605 0.214298 0.292204 55.845 -4.05874e-08 
184 1 0.142844 0.142836 0.332977 55.845 1.02712e-07 
185 1 0.178601 0.142854 0.292276 55.845 -4.57873e-08 
186 1 0.178568 0.178611 0.332996 55.845 -1.30816e-07 
187 1 0.214241 0.178601 0.292232 55.845 8.35451e-09 
188 1 0.214295 0.214283 0.33306 55.845 -1.21662e-07 
189 1 0.250059 0.214354 0.292358 55.845 -2.65657e-07 
198 1 0.214354 0.142864 0.332958 55.845 1.69281e-07 
199 1 0.249984 0.142892 0.292263 55.845 -1.17373e-07 
200 1 0.249965 0.178643 0.332933 55.845 5.88467e-08 
276 1 0.142913 0.214304 0.250859 55.845 -1.49018e-07 
286 1 0.142885 0.142838 0.250867 55.845 -2.42492e-08 
288 1 0.178627 0.178591 0.250869 55.845 -1.38241e-07 
290 1 0.214315 0.214305 0.250864 55.845 -1.75104e-07 
300 1 0.214363 0.142854 0.250781 55.845 -1.02999e-08 
302 1 0.250047 0.178588 0.250806 55.845 -5.10185e-08 
25 1 0.285653 0.178579 0.458011 55.845 -3.27854e-07 
26 1 0.321499 0.214327 0.458053 55.845 -3.27244e-07 
31 1 0.321419 0.142949 0.4581 55.845 -7.4507e-09 
32 1 0.357156 0.178569 0.458035 55.845 -4.9544e-08 
99 1 0.285791 0.178654 0.374262 55.845 -3.15607e-07 
100 1 0.285795 0.214252 0.415937 55.845 2.21686e-07 
101 1 0.321491 0.214359 0.374263 55.845 -6.89186e-08 
110 1 0.285772 0.1429 0.415929 55.845 6.69731e-08 
111 1 0.321444 0.142929 0.374344 55.845 3.62448e-08 
112 1 0.321443 0.178654 0.415971 55.845 1.35802e-07 
113 1 0.357174 0.178573 0.374159 55.845 2.29014e-07 
114 1 0.357177 0.214228 0.415948 55.845 -6.9155e-08 
126 1 0.35711 0.142923 0.416042 55.845 9.94752e-08 
201 1 0.28568 0.178597 0.292305 55.845 -3.33233e-07 
202 1 0.285743 0.214336 0.333115 55.845 -2.78739e-07 
203 1 0.321356 0.214316 0.292321 55.845 -2.34866e-07 
212 1 0.285753 0.142923 0.33303 55.845 1.50369e-07 
213 1 0.321479 0.142883 0.292294 55.845 5.43889e-08 
214 1 0.321454 0.178654 0.332976 55.845 -1.0232e-07 
215 1 0.357116 0.17859 0.292253 55.845 -1.52152e-08 