ITEM: TIMESTEP
4700
ITEM: NUMBER OF ATOMS
5880
ITEM: BOX BOUNDS pp pp ff
-28.0089 28.0089
-28.0089 28.0089
0 34.092
ITEM: ATOMS id type xs ys zs mass q 
259 1 -2.40094e-06 0.107188 0.208367 55.845 -4.63273e-07 
267 1 7.73263e-05 0.0356851 0.208288 55.845 -5.04816e-07 
269 1 0.0357533 0.0714325 0.208385 55.845 -4.90912e-07 
271 1 0.0714364 0.107149 0.208175 55.845 -4.54968e-07 
279 1 0.0357513 -7.9381e-07 0.20826 55.845 -4.72224e-07 
281 1 0.0714769 0.0356815 0.208277 55.845 -5.00409e-07 
283 1 0.107083 0.0714674 0.208355 55.845 -4.82715e-07 
293 1 0.107159 1.8909e-05 0.20835 55.845 -4.82232e-07 
361 1 -4.0602e-06 0.107073 0.12557 55.845 5.0996e-07 
369 1 3.8818e-05 0.0357542 0.125505 55.845 4.98578e-07 
370 1 -1.95453e-05 0.0714298 0.166769 55.845 3.46438e-07 
371 1 0.0357169 0.0714478 0.125596 55.845 5.27476e-07 
372 1 0.0356858 0.107131 0.166796 55.845 3.46097e-07 
373 1 0.071384 0.107122 0.125542 55.845 5.30151e-07 
380 1 -2.15266e-06 1.99222e-05 0.166828 55.845 3.00971e-07 
381 1 0.0357862 0.000106946 0.125616 55.845 4.57337e-07 
382 1 0.0357665 0.035726 0.166873 55.845 3.02462e-07 
383 1 0.0714104 0.0357749 0.125553 55.845 5.03251e-07 
384 1 0.0713886 0.0714999 0.166739 55.845 3.20584e-07 
385 1 0.107109 0.0713906 0.125646 55.845 5.20608e-07 
386 1 0.107123 0.107221 0.166708 55.845 3.16981e-07 
394 1 0.0714397 7.59947e-05 0.166828 55.845 3.23484e-07 
395 1 0.107186 6.85048e-06 0.125724 55.845 4.82425e-07 
396 1 0.107128 0.0357516 0.166788 55.845 2.9478e-07 
463 1 0 0.107143 0.0416667 55.845 -8.30873e-09 
471 1 0 0.0357143 0.0416667 55.845 -1.9687e-08 
472 1 -2.45969e-05 0.071432 0.0834102 55.845 -3.30801e-07 
473 1 0.0357143 0.0714286 0.0416667 55.845 1.33637e-08 
474 1 0.0357118 0.10712 0.0832259 55.845 -3.8398e-07 
475 1 0.0714286 0.107143 0.0416667 55.845 -1.55761e-09 
482 1 1.16607e-05 -1.13074e-05 0.0835026 55.845 -4.01083e-07 
483 1 0.0357143 0 0.0416667 55.845 -9.90743e-08 
484 1 0.0356919 0.0357213 0.0833581 55.845 -4.07442e-07 
485 1 0.0714286 0.0357143 0.0416667 55.845 -2.64122e-08 
486 1 0.0714659 0.0714029 0.0833547 55.845 -3.26415e-07 
487 1 0.107143 0.0714286 0.0416667 55.845 1.30638e-08 
488 1 0.107127 0.107087 0.0833362 55.845 -3.83959e-07 
496 1 0.071416 2.92465e-05 0.0833377 55.845 -4.40921e-07 
497 1 0.107143 0 0.0416667 55.845 -4.86752e-08 
498 1 0.107159 0.0356715 0.0834467 55.845 -3.60411e-07 
567 1 0 0.0714286 0 55.845 -2.8854e-08 
568 1 0.0357143 0.107143 0 55.845 -6.44968e-09 
572 1 0 0 0 55.845 -1.05348e-07 
573 1 0.0357143 0.0357143 0 55.845 -6.26842e-08 
574 1 0.0714286 0.0714286 0 55.845 9.15665e-09 
575 1 0.107143 0.107143 0 55.845 -1.62493e-08 
579 1 0.0714286 0 0 55.845 -9.26832e-08 
580 1 0.107143 0.0357143 0 55.845 -2.52441e-08 
285 1 0.14287 0.107201 0.208197 55.845 -5.12898e-07 
295 1 0.142784 0.0357576 0.208311 55.845 -5.35512e-07 
297 1 0.178507 0.0714063 0.208384 55.845 -5.20062e-07 
299 1 0.214218 0.107233 0.208288 55.845 -4.81423e-07 
307 1 0.178512 -6.41843e-07 0.208322 55.845 -4.91809e-07 
309 1 0.214281 0.0357687 0.2083 55.845 -5.0159e-07 
311 1 0.249991 0.0714462 0.208214 55.845 -4.49542e-07 
387 1 0.142844 0.107178 0.12557 55.845 4.92798e-07 
397 1 0.142816 0.035642 0.125617 55.845 5.18606e-07 
398 1 0.142784 0.0714447 0.166784 55.845 2.68569e-07 
399 1 0.178586 0.0713768 0.125602 55.845 5.02693e-07 
400 1 0.178581 0.107118 0.166691 55.845 3.00768e-07 
401 1 0.214295 0.107145 0.125449 55.845 4.77513e-07 
408 1 0.142857 -6.91609e-05 0.166883 55.845 2.87458e-07 
409 1 0.178591 1.48077e-05 0.125574 55.845 5.07248e-07 
410 1 0.178489 0.0356646 0.166805 55.845 2.87395e-07 
411 1 0.214315 0.0357194 0.125535 55.845 5.02272e-07 
412 1 0.21424 0.0714711 0.166692 55.845 2.90226e-07 
413 1 0.250019 0.0713893 0.125556 55.845 5.12011e-07 
414 1 0.249965 0.107139 0.166796 55.845 3.735e-07 
424 1 0.214285 6.70897e-05 0.166853 55.845 3.24456e-07 
426 1 0.249982 0.0357366 0.16668 55.845 2.86903e-07 
489 1 0.142857 0.107143 0.0416667 55.845 -1.20265e-08 
499 1 0.142857 0.0357143 0.0416667 55.845 4.37648e-08 
500 1 0.142824 0.0714368 0.0834098 55.845 -3.4739e-07 
501 1 0.178571 0.0714286 0.0416667 55.845 2.69097e-08 
502 1 0.178552 0.107083 0.0832918 55.845 -4.22827e-07 
503 1 0.214286 0.107143 0.0416667 55.845 -5.61516e-08 
510 1 0.142838 1.4803e-07 0.0833681 55.845 -3.6256e-07 
511 1 0.178571 0 0.0416667 55.845 -8.38856e-09 
512 1 0.178539 0.035633 0.083403 55.845 -3.54672e-07 
513 1 0.214286 0.0357143 0.0416667 55.845 -2.54052e-08 
514 1 0.214289 0.0714464 0.0832387 55.845 -4.43604e-07 
515 1 0.25 0.0714286 0.0416667 55.845 -4.95276e-08 
516 1 0.249991 0.107115 0.0835094 55.845 -3.74288e-07 
526 1 0.214288 4.9812e-05 0.0835414 55.845 -3.53367e-07 
528 1 0.250015 0.0356835 0.083276 55.845 -4.08368e-07 
581 1 0.142857 0.0714286 0 55.845 3.68642e-08 
582 1 0.178571 0.107143 0 55.845 -9.17909e-09 
586 1 0.142857 0 0 55.845 -5.09099e-08 
587 1 0.178571 0.0357143 0 55.845 -9.60646e-09 
588 1 0.214286 0.0714286 0 55.845 -1.6012e-08 
589 1 0.25 0.107143 0 55.845 -2.49214e-08 
594 1 0.214286 0 0 55.845 -1.13068e-07 
595 1 0.25 0.0357143 0 55.845 -8.82568e-08 
313 1 0.285693 0.107124 0.208211 55.845 -4.12047e-07 
323 1 0.249948 -3.04587e-05 0.208292 55.845 -4.74085e-07 
325 1 0.285719 0.0358211 0.208276 55.845 -4.90183e-07 
327 1 0.321372 0.0714035 0.208289 55.845 -4.41928e-07 
329 1 0.357102 0.107182 0.208251 55.845 -4.72099e-07 
337 1 0.321302 1.63138e-05 0.208354 55.845 -4.83473e-07 
339 1 0.357061 0.0357699 0.208247 55.845 -4.6656e-07 
415 1 0.285757 0.107157 0.125607 55.845 5.82867e-07 
425 1 0.250019 -1.79708e-05 0.125622 55.845 5.28507e-07 
427 1 0.285688 0.0357166 0.125645 55.845 5.22913e-07 
428 1 0.28574 0.0713933 0.166777 55.845 3.47482e-07 
429 1 0.321477 0.0714282 0.125454 55.845 5.51309e-07 
430 1 0.321517 0.107133 0.166773 55.845 3.25297e-07 
431 1 0.35721 0.107107 0.125549 55.845 5.4758e-07 
439 1 0.321357 2.23877e-05 0.125615 55.845 5.35048e-07 
440 1 0.321452 0.0357288 0.166731 55.845 3.27667e-07 
441 1 0.357113 0.0357516 0.125437 55.845 4.89476e-07 
442 1 0.357209 0.0714357 0.166867 55.845 2.98322e-07 
517 1 0.285714 0.107143 0.0416667 55.845 -2.55e-08 
527 1 0.25 0 0.0416667 55.845 -3.79358e-08 
529 1 0.285714 0.0357143 0.0416667 55.845 -3.71914e-08 
530 1 0.285664 0.0714624 0.083315 55.845 -3.9188e-07 
531 1 0.321429 0.0714286 0.0416667 55.845 -5.21226e-08 
532 1 0.321461 0.107128 0.0833519 55.845 -3.88689e-07 
533 1 0.357143 0.107143 0.0416667 55.845 -9.52077e-10 
603 1 0.357143 0.0714286 0 55.845 -4.11712e-08 
541 1 0.321429 0 0.0416667 55.845 -1.9193e-09 
542 1 0.321375 0.0356558 0.0832647 55.845 -4.09535e-07 
543 1 0.357143 0.0357143 0.0416667 55.845 -2.58071e-08 
544 1 0.35719 0.0714412 0.0832844 55.845 -4.31646e-07 
602 1 0.321429 0.0357143 0 55.845 -3.46989e-08 
596 1 0.285714 0.0714286 0 55.845 -4.46787e-08 
597 1 0.321429 0.107143 0 55.845 -4.66316e-08 
612 1 0.464286 0.0357143 0 55.845 -1.25449e-08 
611 1 0.428571 0 0 55.845 -1.09794e-08 
610 1 0.464286 0.107143 0 55.845 -4.00917e-08 
609 1 0.428571 0.0714286 0 55.845 -3.81548e-08 
608 1 0.392857 0.0357143 0 55.845 -3.50831e-09 
341 1 0.392863 0.0714063 0.208331 55.845 -4.83137e-07 
343 1 0.42866 0.107139 0.20834 55.845 -4.75368e-07 
348 1 0.392862 4.97172e-05 0.208318 55.845 -5.09856e-07 
350 1 0.428517 0.0357163 0.208158 55.845 -5.50471e-07 
352 1 0.464307 0.0714704 0.20832 55.845 -5.01655e-07 
355 1 0.464288 -2.92364e-06 0.208279 55.845 -5.78187e-07 
443 1 0.392916 0.0713738 0.125591 55.845 5.14501e-07 
444 1 0.392862 0.107145 0.166804 55.845 3.06959e-07 
445 1 0.428604 0.107074 0.125628 55.845 5.59589e-07 
604 1 0.392857 0.107143 0 55.845 -4.85503e-08 
450 1 0.39276 3.7279e-05 0.125437 55.845 4.87719e-07 
451 1 0.392775 0.0356395 0.166778 55.845 2.72944e-07 
452 1 0.428548 0.0358204 0.125542 55.845 4.6098e-07 
453 1 0.42859 0.0714198 0.166959 55.845 2.8261e-07 
454 1 0.46429 0.0714818 0.125712 55.845 5.29024e-07 
455 1 0.464303 0.107177 0.166803 55.845 3.02749e-07 
456 1 0.428598 -1.74539e-05 0.166678 55.845 3.26654e-07 
457 1 0.464314 -4.43242e-05 0.125535 55.845 4.42249e-07 
458 1 0.464273 0.0356131 0.166698 55.845 3.35731e-07 
545 1 0.392857 0.0714286 0.0416667 55.845 -8.01744e-09 
546 1 0.392887 0.107162 0.0834295 55.845 -3.90902e-07 
547 1 0.428571 0.107143 0.0416667 55.845 -1.02154e-08 
552 1 0.392857 0 0.0416667 55.845 -1.40445e-08 
553 1 0.392875 0.035719 0.0833824 55.845 -4.21664e-07 
554 1 0.428571 0.0357143 0.0416667 55.845 5.76788e-09 
555 1 0.428475 0.0714489 0.0835911 55.845 -3.31685e-07 
556 1 0.464286 0.0714286 0.0416667 55.845 4.60786e-08 
557 1 0.46426 0.107151 0.0834466 55.845 -3.48637e-07 
558 1 0.4286 5.8054e-05 0.0832997 55.845 -4.0554e-07 
559 1 0.464286 0 0.0416667 55.845 -3.21914e-08 
560 1 0.464216 0.0357846 0.0833609 55.845 -3.44997e-07 
255 1 1.47022e-06 0.17859 0.208215 55.845 -5.1322e-07 
257 1 0.0356702 0.214224 0.208362 55.845 -5.57354e-07 
261 1 0.0357822 0.14286 0.208343 55.845 -4.39259e-07 
263 1 0.0713691 0.178602 0.208204 55.845 -4.741e-07 
265 1 0.10704 0.214317 0.208248 55.845 -4.90765e-07 
273 1 0.107042 0.142889 0.208296 55.845 -4.71978e-07 
357 1 7.74333e-06 0.178484 0.125655 55.845 4.44408e-07 
358 1 -2.57176e-05 0.214337 0.166799 55.845 2.55055e-07 
359 1 0.0356723 0.214268 0.125522 55.845 4.47195e-07 
360 1 0.0357546 0.249929 0.166614 55.845 3.09055e-07 
362 1 -1.38869e-05 0.142811 0.166791 55.845 2.91543e-07 
363 1 0.0357258 0.142874 0.125614 55.845 4.69923e-07 
364 1 0.0357464 0.178568 0.166749 55.845 2.76668e-07 
365 1 0.0714046 0.17859 0.12556 55.845 4.79053e-07 
366 1 0.0713741 0.214335 0.166766 55.845 2.75681e-07 
367 1 0.107082 0.214291 0.125528 55.845 4.75733e-07 
368 1 0.107138 0.249936 0.166819 55.845 3.31956e-07 
374 1 0.0714699 0.142804 0.166778 55.845 3.28395e-07 
375 1 0.107116 0.142885 0.12548 55.845 4.84748e-07 
376 1 0.10717 0.178569 0.166694 55.845 3.41984e-07 
459 1 0 0.178571 0.0416667 55.845 -6.22623e-08 
460 1 -5.42097e-05 0.214292 0.0833875 55.845 -4.20312e-07 
461 1 0.0357143 0.214286 0.0416667 55.845 -3.28492e-08 
462 1 0.0357091 0.25007 0.0833217 55.845 -4.03025e-07 
464 1 3.0714e-05 0.142854 0.0832947 55.845 -4.64852e-07 
465 1 0.0357143 0.142857 0.0416667 55.845 -6.91516e-08 
466 1 0.0357125 0.178495 0.0833768 55.845 -4.40774e-07 
467 1 0.0714286 0.178571 0.0416667 55.845 -7.5218e-08 
468 1 0.0713603 0.21428 0.083334 55.845 -4.03461e-07 
469 1 0.107143 0.214286 0.0416667 55.845 -2.80232e-08 
470 1 0.107097 0.249979 0.0833981 55.845 -3.61855e-07 
476 1 0.0715086 0.142814 0.0834819 55.845 -3.95769e-07 
477 1 0.107143 0.142857 0.0416667 55.845 -7.63548e-08 
478 1 0.107195 0.178593 0.0833081 55.845 -4.29896e-07 
561 1 0 0.214286 0 55.845 -5.99005e-08 
562 1 0.0357143 0.25 0 55.845 -1.49907e-09 
563 1 0 0.142857 0 55.845 -5.60658e-08 
564 1 0.0357143 0.178571 0 55.845 -1.08222e-07 
565 1 0.0714286 0.214286 0 55.845 -5.72036e-08 
566 1 0.107143 0.25 0 55.845 -6.66877e-09 
569 1 0.0714286 0.142857 0 55.845 -7.11715e-08 
570 1 0.107143 0.178571 0 55.845 -1.05492e-07 
275 1 0.142842 0.178571 0.208334 55.845 -5.41761e-07 
277 1 0.178474 0.214299 0.208203 55.845 -5.89234e-07 
287 1 0.178478 0.142887 0.20826 55.845 -5.72543e-07 
289 1 0.214274 0.178567 0.208275 55.845 -5.47168e-07 
291 1 0.249983 0.214325 0.208317 55.845 -5.04875e-07 
301 1 0.249907 0.142827 0.208279 55.845 -4.81076e-07 
377 1 0.142835 0.178625 0.125623 55.845 4.80595e-07 
378 1 0.142788 0.214253 0.166732 55.845 2.72554e-07 
379 1 0.178563 0.214297 0.125588 55.845 4.83075e-07 
388 1 0.142787 0.142914 0.166701 55.845 3.11135e-07 
389 1 0.178567 0.142857 0.125398 55.845 4.73594e-07 
390 1 0.178506 0.178554 0.166815 55.845 3.01198e-07 
391 1 0.214364 0.178636 0.125506 55.845 5.16316e-07 
392 1 0.214222 0.214228 0.166749 55.845 2.82179e-07 
393 1 0.249922 0.214408 0.125588 55.845 4.74841e-07 
402 1 0.214287 0.142883 0.166787 55.845 3.05703e-07 
403 1 0.249972 0.142847 0.125507 55.845 5.29308e-07 
404 1 0.249968 0.178602 0.166663 55.845 2.82391e-07 
479 1 0.142857 0.178571 0.0416667 55.845 -7.3386e-08 
480 1 0.142917 0.214358 0.0834475 55.845 -3.88785e-07 
481 1 0.178571 0.214286 0.0416667 55.845 -2.86141e-08 
490 1 0.14286 0.14286 0.0833429 55.845 -4.19974e-07 
491 1 0.178571 0.142857 0.0416667 55.845 -9.59306e-08 
492 1 0.178581 0.17859 0.0833417 55.845 -4.11219e-07 
493 1 0.214286 0.178571 0.0416667 55.845 -5.37668e-08 
494 1 0.214246 0.214352 0.0834115 55.845 -3.95965e-07 
495 1 0.25 0.214286 0.0416667 55.845 -4.38599e-08 
504 1 0.214281 0.142786 0.0833615 55.845 -4.42619e-07 
505 1 0.25 0.142857 0.0416667 55.845 -5.16245e-08 
506 1 0.249985 0.178665 0.0834279 55.845 -4.02037e-07 
571 1 0.142857 0.214286 0 55.845 -5.24985e-08 
576 1 0.142857 0.142857 0 55.845 -1.0639e-07 
577 1 0.178571 0.178571 0 55.845 -1.16307e-07 
578 1 0.214286 0.214286 0 55.845 -6.12248e-08 
583 1 0.214286 0.142857 0 55.845 -9.17366e-08 
584 1 0.25 0.178571 0 55.845 -1.03332e-07 
303 1 0.285701 0.178549 0.208161 55.845 -4.70123e-07 
305 1 0.32134 0.214311 0.208215 55.845 -4.76805e-07 
315 1 0.321384 0.142818 0.208263 55.845 -4.88609e-07 
317 1 0.35715 0.178606 0.208417 55.845 -4.6073e-07 
405 1 0.285698 0.178562 0.125629 55.845 5.45177e-07 
406 1 0.285626 0.214282 0.166754 55.845 2.95764e-07 
407 1 0.32148 0.214339 0.125479 55.845 5.37532e-07 
416 1 0.285708 0.142835 0.166849 55.845 3.37828e-07 
417 1 0.321377 0.142774 0.125492 55.845 5.16732e-07 
418 1 0.321474 0.17858 0.166768 55.845 3.14353e-07 
419 1 0.357206 0.178615 0.125508 55.845 5.43383e-07 
420 1 0.357147 0.214347 0.166758 55.845 3.20381e-07 
432 1 0.357069 0.142883 0.166789 55.845 2.72748e-07 
507 1 0.285714 0.178571 0.0416667 55.845 -6.61124e-08 
508 1 0.285678 0.214361 0.0834745 55.845 -3.7597e-07 
509 1 0.321429 0.214286 0.0416667 55.845 -1.26929e-08 
518 1 0.285737 0.142848 0.083387 55.845 -3.86312e-07 
519 1 0.321429 0.142857 0.0416667 55.845 -3.64511e-08 
520 1 0.32144 0.178582 0.0834111 55.845 -3.77958e-07 
521 1 0.357143 0.178571 0.0416667 55.845 4.63666e-09 
522 1 0.357246 0.214318 0.0833444 55.845 -3.7315e-07 
534 1 0.357153 0.142847 0.0834682 55.845 -3.77258e-07 
585 1 0.285714 0.214286 0 55.845 -8.12452e-08 
590 1 0.285714 0.142857 0 55.845 -1.13042e-07 
591 1 0.321429 0.178571 0 55.845 -9.26314e-08 
592 1 0.357143 0.214286 0 55.845 -1.76768e-08 
598 1 0.357143 0.142857 0 55.845 -4.20541e-08 
319 1 0.392902 0.214242 0.208282 55.845 -4.4668e-07 
321 1 0.42862 0.250121 0.208235 55.845 -4.53667e-07 
331 1 0.392854 0.142819 0.208292 55.845 -4.88563e-07 
333 1 0.428552 0.178637 0.208319 55.845 -4.98213e-07 
335 1 0.464302 0.214244 0.208263 55.845 -4.80492e-07 
345 1 0.464323 0.142914 0.208228 55.845 -4.88572e-07 
606 1 0.464286 0.178571 0 55.845 -8.35805e-08 
421 1 0.3929 0.21434 0.125568 55.845 5.16814e-07 
422 1 0.392905 0.250043 0.166846 55.845 3.2053e-07 
423 1 0.428612 0.249989 0.125596 55.845 5.46286e-07 
433 1 0.392975 0.142832 0.125599 55.845 5.34852e-07 
434 1 0.392831 0.178545 0.166772 55.845 3.09575e-07 
435 1 0.428635 0.178586 0.125676 55.845 4.74337e-07 
436 1 0.42865 0.214319 0.166866 55.845 3.07452e-07 
437 1 0.464346 0.214301 0.125577 55.845 5.31367e-07 
605 1 0.428571 0.142857 0 55.845 -8.96423e-08 
446 1 0.428645 0.142829 0.166815 55.845 2.61929e-07 
447 1 0.464274 0.142832 0.125543 55.845 4.87354e-07 
448 1 0.464259 0.178556 0.166804 55.845 2.50844e-07 
523 1 0.392857 0.214286 0.0416667 55.845 1.65486e-08 
524 1 0.392849 0.250026 0.0834086 55.845 -3.48222e-07 
525 1 0.428571 0.25 0.0416667 55.845 1.83257e-09 
535 1 0.392857 0.142857 0.0416667 55.845 -7.39368e-09 
536 1 0.392876 0.178543 0.0834436 55.845 -4.06912e-07 
537 1 0.428571 0.178571 0.0416667 55.845 -6.20407e-08 
538 1 0.428558 0.214238 0.0834906 55.845 -3.80901e-07 
539 1 0.464286 0.214286 0.0416667 55.845 -3.44985e-08 
548 1 0.428637 0.142845 0.0834034 55.845 -4.45295e-07 
549 1 0.464286 0.142857 0.0416667 55.845 -6.26391e-08 
550 1 0.464339 0.178536 0.0833909 55.845 -4.52262e-07 
593 1 0.392857 0.25 0 55.845 -2.88045e-08 
599 1 0.392857 0.178571 0 55.845 -3.11943e-08 
600 1 0.428571 0.214286 0 55.845 -3.94174e-08 
3 1 -7.43555e-05 0.107047 0.457425 55.845 5.85152e-07 
7 1 -3.37266e-05 0.0357302 0.457396 55.845 5.958e-07 
8 1 0.0356841 0.0712804 0.457354 55.845 6.03574e-07 
9 1 0.0714058 0.107098 0.457394 55.845 5.90769e-07 
13 1 0.0356175 7.81465e-05 0.457331 55.845 5.21045e-07 
14 1 0.0713932 0.0357154 0.457298 55.845 6.04649e-07 
15 1 0.10713 0.0713916 0.457378 55.845 6.2772e-07 
20 1 0.107113 8.64018e-05 0.457417 55.845 5.96497e-07 
55 1 -3.18633e-05 0.10704 0.373447 55.845 -2.66864e-07 
63 1 9.66758e-06 0.0357714 0.37327 55.845 -2.42977e-07 
64 1 -0.000100757 0.0713829 0.414976 55.845 3.081e-07 
65 1 0.0356763 0.0714428 0.373294 55.845 -2.18497e-07 
66 1 0.0356745 0.107058 0.414986 55.845 3.54158e-07 
67 1 0.0714402 0.107122 0.373445 55.845 -2.58557e-07 
74 1 4.03341e-05 5.41594e-05 0.414946 55.845 2.60912e-07 
75 1 0.0357144 2.5305e-05 0.373467 55.845 -2.50245e-07 
76 1 0.0356754 0.0357744 0.414996 55.845 2.76505e-07 
77 1 0.0713928 0.0357206 0.373299 55.845 -2.80775e-07 
78 1 0.0713892 0.0714246 0.414838 55.845 3.23035e-07 
79 1 0.107172 0.071519 0.373436 55.845 -2.21402e-07 
80 1 0.107046 0.107186 0.415024 55.845 3.0179e-07 
88 1 0.0713814 -7.68305e-06 0.41502 55.845 2.29003e-07 
89 1 0.107124 1.94417e-05 0.373387 55.845 -2.77194e-07 
90 1 0.107139 0.0357312 0.414883 55.845 2.66948e-07 
157 1 2.80195e-05 0.107184 0.292463 55.845 3.5291e-07 
165 1 4.10124e-06 0.0356947 0.292657 55.845 4.01909e-07 
166 1 -2.73565e-05 0.0714075 0.332939 55.845 -1.65021e-07 
167 1 0.0357819 0.0714655 0.292469 55.845 4.05566e-07 
168 1 0.0356824 0.107104 0.333143 55.845 -1.65541e-07 
169 1 0.0714051 0.107133 0.292537 55.845 4.49275e-07 
176 1 2.55969e-05 -3.61267e-05 0.332958 55.845 -1.83106e-07 
177 1 0.0356956 -6.53075e-06 0.292499 55.845 4.2683e-07 
178 1 0.0357425 0.0356088 0.33294 55.845 -1.561e-07 
179 1 0.0715079 0.0356961 0.292434 55.845 4.05669e-07 
180 1 0.0714364 0.0714022 0.333045 55.845 -1.63094e-07 
181 1 0.107163 0.0714625 0.292623 55.845 4.65579e-07 
182 1 0.107177 0.107197 0.332977 55.845 -1.85417e-07 
190 1 0.0714416 1.95781e-05 0.333017 55.845 -2.18275e-07 
191 1 0.107162 7.66438e-05 0.292442 55.845 3.70835e-07 
192 1 0.107177 0.0357288 0.332944 55.845 -2.5564e-07 
268 1 -4.37811e-05 0.0714648 0.250469 55.845 -5.02559e-08 
270 1 0.0357325 0.107112 0.250497 55.845 -1.39024e-08 
278 1 6.30735e-05 -3.94098e-05 0.250415 55.845 -1.26927e-08 
280 1 0.0357785 0.0357248 0.250462 55.845 -4.76536e-08 
282 1 0.0714579 0.0714423 0.250484 55.845 -3.77733e-08 
284 1 0.10707 0.10714 0.250463 55.845 -1.11907e-08 
292 1 0.0714209 3.5765e-05 0.250498 55.845 -3.52433e-08 
294 1 0.107133 0.0357882 0.250322 55.845 -7.57589e-08 
16 1 0.142851 0.107137 0.457405 55.845 5.96317e-07 
21 1 0.142863 0.0357278 0.457323 55.845 5.65601e-07 
22 1 0.178615 0.0714586 0.4572 55.845 5.71734e-07 
23 1 0.214243 0.107168 0.457405 55.845 5.85404e-07 
27 1 0.178581 -1.30029e-06 0.457485 55.845 6.32184e-07 
28 1 0.21427 0.0357236 0.457334 55.845 6.04607e-07 
29 1 0.249942 0.0714761 0.457522 55.845 6.51863e-07 
81 1 0.142915 0.107149 0.37342 55.845 -2.80409e-07 
91 1 0.142895 0.0357311 0.373292 55.845 -2.75648e-07 
92 1 0.142899 0.0714857 0.414988 55.845 2.70115e-07 
93 1 0.178547 0.0714684 0.373275 55.845 -2.34935e-07 
94 1 0.178607 0.107195 0.415053 55.845 2.36309e-07 
95 1 0.214221 0.107182 0.373433 55.845 -2.70822e-07 
102 1 0.142857 2.21513e-05 0.415016 55.845 2.92713e-07 
103 1 0.178587 2.79433e-05 0.373254 55.845 -3.4759e-07 
104 1 0.178537 0.0356871 0.414984 55.845 2.54059e-07 
105 1 0.214257 0.0356892 0.37339 55.845 -2.80034e-07 
106 1 0.214335 0.0714349 0.414904 55.845 3.17942e-07 
107 1 0.249984 0.0713988 0.373459 55.845 -2.61163e-07 
108 1 0.249853 0.107162 0.41499 55.845 2.91853e-07 
118 1 0.214326 7.94943e-06 0.415062 55.845 2.39687e-07 
120 1 0.250002 0.0357756 0.415035 55.845 2.1279e-07 
183 1 0.142846 0.107194 0.292426 55.845 3.94715e-07 
193 1 0.142826 0.0357556 0.292405 55.845 3.91537e-07 
194 1 0.142892 0.0714876 0.33294 55.845 -2.2319e-07 
195 1 0.178637 0.0714275 0.292473 55.845 3.83612e-07 
196 1 0.178535 0.107147 0.332889 55.845 -2.24951e-07 
197 1 0.214333 0.107106 0.292664 55.845 3.72623e-07 
204 1 0.14285 -4.72087e-05 0.333021 55.845 -2.70187e-07 
205 1 0.178596 -2.97146e-05 0.292467 55.845 3.89671e-07 
206 1 0.178525 0.0357184 0.332889 55.845 -2.42285e-07 
207 1 0.214249 0.0357466 0.292394 55.845 3.981e-07 
208 1 0.214343 0.0713594 0.333083 55.845 -1.88653e-07 
209 1 0.250015 0.0714822 0.292402 55.845 4.2634e-07 
210 1 0.249993 0.107191 0.333128 55.845 -2.64776e-07 
220 1 0.214297 3.56002e-05 0.333047 55.845 -3.03685e-07 
222 1 0.249962 0.0357533 0.332968 55.845 -2.04434e-07 
296 1 0.142823 0.0714632 0.250454 55.845 -7.23291e-08 
298 1 0.178549 0.107141 0.250488 55.845 -1.04738e-07 
306 1 0.142823 2.43668e-05 0.250478 55.845 -4.60768e-08 
308 1 0.178558 0.035686 0.250508 55.845 -9.30041e-08 
310 1 0.214307 0.0714775 0.250414 55.845 -5.09548e-08 
312 1 0.250015 0.107161 0.250471 55.845 -6.02075e-08 
322 1 0.21421 4.67548e-05 0.250488 55.845 -6.2043e-08 
324 1 0.250013 0.0357104 0.250487 55.845 -7.90308e-08 
30 1 0.285721 0.107166 0.457345 55.845 5.53046e-07 
35 1 0.249925 9.07794e-06 0.457448 55.845 6.1145e-07 
36 1 0.285639 0.0357899 0.457422 55.845 5.74001e-07 
37 1 0.321404 0.0714326 0.45747 55.845 6.25904e-07 
38 1 0.357144 0.107137 0.457311 55.845 6.01704e-07 
42 1 0.321337 4.34196e-05 0.457416 55.845 5.60839e-07 
43 1 0.357159 0.0357176 0.457367 55.845 6.53691e-07 
109 1 0.285744 0.107152 0.373503 55.845 -2.77843e-07 
119 1 0.249984 9.13648e-05 0.373442 55.845 -3.40138e-07 
121 1 0.285627 0.0357124 0.3734 55.845 -2.55169e-07 
122 1 0.285658 0.0715262 0.415111 55.845 2.76968e-07 
123 1 0.321311 0.0713627 0.37347 55.845 -2.69841e-07 
124 1 0.321418 0.107113 0.415052 55.845 2.16104e-07 
125 1 0.357175 0.107209 0.373352 55.845 -3.27902e-07 
133 1 0.321378 3.10175e-05 0.373448 55.845 -2.50016e-07 
134 1 0.32137 0.0358183 0.415004 55.845 3.29444e-07 
135 1 0.357085 0.0358043 0.373454 55.845 -2.8417e-07 
136 1 0.357103 0.0714512 0.414891 55.845 2.34237e-07 
211 1 0.285645 0.107209 0.292483 55.845 4.19494e-07 
221 1 0.249993 3.12988e-05 0.292507 55.845 3.78088e-07 
223 1 0.28577 0.0357808 0.292596 55.845 4.2975e-07 
224 1 0.285704 0.0714483 0.332959 55.845 -1.97664e-07 
225 1 0.321472 0.0714193 0.292419 55.845 4.52257e-07 
226 1 0.321355 0.107092 0.333052 55.845 -2.24559e-07 
227 1 0.357118 0.107182 0.292631 55.845 4.11385e-07 
235 1 0.321362 1.3496e-05 0.292604 55.845 4.25692e-07 
236 1 0.321403 0.0357016 0.333094 55.845 -1.76383e-07 
237 1 0.357105 0.0357865 0.292574 55.845 4.04637e-07 
238 1 0.357117 0.0713908 0.33303 55.845 -2.45677e-07 
326 1 0.285724 0.0714669 0.250405 55.845 -5.98901e-08 
328 1 0.321366 0.10719 0.250461 55.845 -5.57396e-08 
338 1 0.321402 0.0356537 0.250576 55.845 -6.1996e-08 
340 1 0.357074 0.0715047 0.250554 55.845 -4.34178e-08 
44 1 0.392732 0.0713839 0.457358 55.845 5.59377e-07 
45 1 0.428648 0.107068 0.457429 55.845 5.4602e-07 
47 1 0.392845 -2.21462e-06 0.457355 55.845 5.6281e-07 
48 1 0.428525 0.0356984 0.457223 55.845 5.74281e-07 
49 1 0.46428 0.0714724 0.457421 55.845 6.40743e-07 
50 1 0.464323 3.58102e-05 0.457364 55.845 5.55399e-07 
137 1 0.392816 0.0714195 0.37347 55.845 -3.08365e-07 
138 1 0.392881 0.107133 0.415027 55.845 2.14798e-07 
139 1 0.428604 0.10721 0.373307 55.845 -2.81478e-07 
144 1 0.392859 2.55636e-05 0.373413 55.845 -3.48511e-07 
145 1 0.392806 0.0357533 0.414986 55.845 2.69089e-07 
146 1 0.428623 0.0357381 0.373483 55.845 -3.15118e-07 
147 1 0.428534 0.0713952 0.41512 55.845 2.51935e-07 
148 1 0.464311 0.0714697 0.373478 55.845 -3.61912e-07 
149 1 0.464256 0.107207 0.414906 55.845 2.5941e-07 
150 1 0.428612 7.48247e-05 0.414997 55.845 2.68856e-07 
151 1 0.464299 1.38109e-05 0.37342 55.845 -3.6176e-07 
152 1 0.46424 0.0357728 0.415053 55.845 2.98222e-07 
239 1 0.392839 0.071445 0.292498 55.845 4.13018e-07 
240 1 0.392841 0.107145 0.333066 55.845 -2.31669e-07 
241 1 0.428542 0.107134 0.292618 55.845 3.65217e-07 
246 1 0.392804 1.30395e-05 0.292399 55.845 3.82383e-07 
247 1 0.392855 0.0356897 0.332975 55.845 -1.97425e-07 
248 1 0.428515 0.0357345 0.292377 55.845 4.02192e-07 
249 1 0.428607 0.0713863 0.332967 55.845 -1.90634e-07 
250 1 0.464325 0.0713729 0.292399 55.845 3.78839e-07 
251 1 0.464297 0.107126 0.33301 55.845 -2.4738e-07 
252 1 0.428596 6.43289e-05 0.332851 55.845 -1.4445e-07 
253 1 0.464278 6.28484e-05 0.292446 55.845 3.54583e-07 
254 1 0.464324 0.0357089 0.33303 55.845 -1.94528e-07 
342 1 0.392848 0.107173 0.250446 55.845 -7.76635e-08 
349 1 0.392753 0.0357576 0.250495 55.845 -2.61407e-08 
351 1 0.428612 0.071398 0.250498 55.845 -5.60836e-08 
353 1 0.464332 0.10717 0.250491 55.845 -7.16098e-08 
354 1 0.428599 -2.73076e-05 0.250434 55.845 -3.34739e-08 
356 1 0.464254 0.0356189 0.250378 55.845 -3.96868e-08 
1 1 -1.75656e-05 0.178467 0.457566 55.845 5.1485e-07 
2 1 0.035748 0.214187 0.457443 55.845 5.3047e-07 
4 1 0.0357347 0.142872 0.45746 55.845 5.84046e-07 
5 1 0.0714694 0.1785 0.457483 55.845 5.25125e-07 
6 1 0.107078 0.214271 0.457452 55.845 5.27884e-07 
10 1 0.107117 0.142788 0.457483 55.845 6.29085e-07 
51 1 4.68216e-05 0.178552 0.373436 55.845 -3.73296e-07 
52 1 -3.14602e-05 0.214228 0.414986 55.845 1.71811e-07 
53 1 0.0356835 0.21429 0.373425 55.845 -3.13545e-07 
54 1 0.035582 0.249924 0.414998 55.845 2.72358e-07 
56 1 1.8843e-05 0.142857 0.414931 55.845 2.65742e-07 
57 1 0.0357508 0.142878 0.373418 55.845 -3.13712e-07 
58 1 0.0357814 0.178583 0.415065 55.845 1.75999e-07 
59 1 0.0714308 0.178567 0.373416 55.845 -3.65952e-07 
60 1 0.0714107 0.214251 0.415068 55.845 2.651e-07 
61 1 0.107068 0.21431 0.373497 55.845 -3.22936e-07 
62 1 0.10708 0.250037 0.415101 55.845 3.01393e-07 
68 1 0.0715075 0.14282 0.414819 55.845 2.37603e-07 
69 1 0.107192 0.142857 0.373507 55.845 -3.60998e-07 
70 1 0.10721 0.178533 0.414952 55.845 2.64382e-07 
153 1 -8.50505e-05 0.17858 0.292398 55.845 4.18151e-07 
154 1 4.42688e-05 0.214323 0.332951 55.845 -1.8923e-07 
155 1 0.0356866 0.214221 0.292563 55.845 4.00875e-07 
156 1 0.0356738 0.250002 0.332987 55.845 -1.7878e-07 
158 1 2.36416e-05 0.142828 0.332963 55.845 -2.11537e-07 
159 1 0.0357489 0.142861 0.292405 55.845 4.17002e-07 
160 1 0.0356063 0.178509 0.333054 55.845 -2.15576e-07 
161 1 0.0713786 0.178521 0.292507 55.845 3.88579e-07 
162 1 0.0713482 0.214288 0.333085 55.845 -2.01056e-07 
163 1 0.107136 0.214317 0.292537 55.845 3.76093e-07 
164 1 0.107152 0.249937 0.332979 55.845 -2.38346e-07 
170 1 0.0714683 0.142846 0.332995 55.845 -2.643e-07 
171 1 0.107076 0.142858 0.292376 55.845 3.94552e-07 
172 1 0.107212 0.178624 0.332987 55.845 -2.58256e-07 
256 1 2.31224e-05 0.214274 0.250388 55.845 -1.79766e-08 
258 1 0.0357482 0.249977 0.250475 55.845 -4.11271e-09 
260 1 5.66556e-06 0.142888 0.250374 55.845 -5.59546e-09 
262 1 0.0356871 0.178613 0.250608 55.845 -6.27115e-08 
264 1 0.0713568 0.214234 0.250533 55.845 -1.56778e-08 
266 1 0.107112 0.249973 0.250529 55.845 -9.26247e-09 
272 1 0.0713834 0.142819 0.250527 55.845 -2.33804e-08 
274 1 0.107132 0.178572 0.250443 55.845 1.87864e-08 
11 1 0.142826 0.178562 0.457531 55.845 5.3058e-07 
12 1 0.178505 0.214271 0.457475 55.845 5.81078e-07 
17 1 0.178543 0.142945 0.457482 55.845 5.17877e-07 
18 1 0.214303 0.178609 0.457412 55.845 5.74574e-07 
19 1 0.249983 0.214248 0.457476 55.845 5.83465e-07 
24 1 0.249932 0.1429 0.457388 55.845 5.78837e-07 
71 1 0.142848 0.178589 0.373536 55.845 -3.66884e-07 
72 1 0.142822 0.21428 0.415076 55.845 2.88935e-07 
73 1 0.17861 0.214216 0.373493 55.845 -2.76281e-07 
82 1 0.142866 0.142818 0.414986 55.845 2.25606e-07 
83 1 0.178532 0.142837 0.373437 55.845 -2.99651e-07 
84 1 0.178558 0.178616 0.415127 55.845 2.59633e-07 
85 1 0.21427 0.178698 0.373538 55.845 -3.52352e-07 
86 1 0.214262 0.21432 0.415015 55.845 2.98399e-07 
87 1 0.249969 0.214245 0.373541 55.845 -3.65425e-07 
96 1 0.214237 0.142866 0.415084 55.845 2.25686e-07 
97 1 0.249965 0.142834 0.373513 55.845 -3.03482e-07 
98 1 0.250002 0.178515 0.414979 55.845 2.24593e-07 
173 1 0.142823 0.178611 0.292495 55.845 3.68971e-07 
174 1 0.142826 0.214327 0.33317 55.845 -2.32269e-07 
175 1 0.178524 0.2142 0.292721 55.845 3.41443e-07 
184 1 0.142773 0.142928 0.333018 55.845 -2.68345e-07 
185 1 0.178477 0.142838 0.292406 55.845 3.67158e-07 
186 1 0.178537 0.178554 0.333125 55.845 -2.25748e-07 
187 1 0.214236 0.17859 0.292536 55.845 3.63445e-07 
188 1 0.214329 0.214302 0.333062 55.845 -2.57827e-07 
189 1 0.249971 0.214384 0.292483 55.845 3.69664e-07 
198 1 0.214255 0.142959 0.332904 55.845 -2.4352e-07 
199 1 0.249991 0.142872 0.292478 55.845 3.86758e-07 
200 1 0.249901 0.178592 0.332904 55.845 -1.9746e-07 
276 1 0.142823 0.214293 0.250561 55.845 -3.72513e-08 
286 1 0.142832 0.142847 0.25038 55.845 -5.01162e-08 
288 1 0.178573 0.178556 0.250455 55.845 -8.25479e-08 
290 1 0.214272 0.214264 0.250546 55.845 -1.08408e-07 
300 1 0.214251 0.142815 0.250444 55.845 -7.75523e-08 
302 1 0.250069 0.178526 0.250486 55.845 -5.38576e-08 
25 1 0.285714 0.178535 0.457425 55.845 6.05849e-07 
26 1 0.321429 0.214311 0.457472 55.845 6.24897e-07 
31 1 0.321489 0.142923 0.457425 55.845 6.32253e-07 
32 1 0.357131 0.178545 0.457418 55.845 6.77354e-07 
99 1 0.28571 0.17858 0.373487 55.845 -2.50374e-07 
100 1 0.285677 0.214131 0.415045 55.845 3.0847e-07 
101 1 0.321397 0.214243 0.373511 55.845 -2.40721e-07 
110 1 0.285702 0.142907 0.415053 55.845 2.70153e-07 
111 1 0.3214 0.142839 0.373477 55.845 -2.74044e-07 
112 1 0.321441 0.178623 0.414964 55.845 3.19529e-07 
113 1 0.357134 0.178655 0.37342 55.845 -2.90875e-07 
114 1 0.357224 0.214304 0.414987 55.845 3.09578e-07 
126 1 0.357158 0.142914 0.414971 55.845 2.25707e-07 
201 1 0.285721 0.178585 0.292398 55.845 4.44958e-07 
202 1 0.285721 0.214253 0.333099 55.845 -1.50919e-07 
203 1 0.321355 0.214265 0.292391 55.845 4.05696e-07 
212 1 0.28572 0.1429 0.33302 55.845 -2.19044e-07 
213 1 0.321398 0.14285 0.292495 55.845 4.11473e-07 
214 1 0.32136 0.178602 0.332897 55.845 -2.16513e-07 
215 1 0.357084 0.178576 0.292587 55.845 3.61706e-07 