ITEM: TIMESTEP
5900
ITEM: NUMBER OF ATOMS
5880
ITEM: BOX BOUNDS pp pp ff
-27.8854 27.8854
-27.8854 27.8854
0 34.092
ITEM: ATOMS id type xs ys zs mass q 
259 1 9.75421e-05 0.107188 0.212059 55.845 3.44943e-07 
267 1 9.6535e-06 0.0357121 0.212185 55.845 4.44052e-07 
269 1 0.035734 0.0714812 0.212104 55.845 4.1917e-07 
271 1 0.0714544 0.107148 0.212182 55.845 3.97806e-07 
279 1 0.0358793 -6.58869e-05 0.211863 55.845 3.93473e-07 
281 1 0.0714287 0.0357064 0.211848 55.845 4.27247e-07 
283 1 0.107176 0.0714352 0.212023 55.845 5.7527e-07 
293 1 0.107118 3.09137e-07 0.212094 55.845 3.47506e-07 
361 1 4.55922e-05 0.107119 0.126854 55.845 2.72183e-07 
369 1 9.15386e-05 0.0357293 0.12694 55.845 7.91618e-08 
370 1 7.32984e-05 0.0714468 0.169368 55.845 -2.11674e-07 
371 1 0.03573 0.0714545 0.126946 55.845 3.46136e-07 
372 1 0.0357389 0.10716 0.169345 55.845 -3.42578e-07 
373 1 0.0714236 0.107169 0.126838 55.845 7.03698e-07 
380 1 1.95766e-05 -5.58073e-05 0.169227 55.845 -1.07395e-07 
381 1 0.0357046 -5.62204e-05 0.12691 55.845 1.67575e-07 
382 1 0.0356931 0.0356647 0.169345 55.845 -1.95754e-07 
383 1 0.0713902 0.0356706 0.126731 55.845 3.5004e-07 
384 1 0.0714481 0.0714853 0.169169 55.845 -3.64023e-07 
385 1 0.10713 0.0714131 0.126922 55.845 5.95192e-07 
386 1 0.107176 0.10723 0.169347 55.845 -4.74733e-07 
394 1 0.0714144 -2.96962e-05 0.168972 55.845 -2.03212e-07 
395 1 0.107188 -3.65367e-05 0.126862 55.845 2.61326e-07 
396 1 0.107059 0.0357043 0.169103 55.845 -2.4025e-07 
463 1 0 0.107143 0.0416667 55.845 -2.15663e-07 
471 1 0 0.0357143 0.0416667 55.845 -8.32366e-08 
472 1 4.31389e-05 0.0714807 0.0842477 55.845 -5.66136e-07 
473 1 0.0357143 0.0714286 0.0416667 55.845 -3.53804e-08 
474 1 0.0357721 0.10717 0.084322 55.845 -4.90086e-07 
475 1 0.0714286 0.107143 0.0416667 55.845 1.77658e-07 
482 1 -2.48818e-05 -4.23088e-05 0.0842458 55.845 -1.41956e-07 
483 1 0.0357143 0 0.0416667 55.845 1.19387e-07 
484 1 0.0356921 0.0356784 0.084392 55.845 -4.63326e-07 
485 1 0.0714286 0.0357143 0.0416667 55.845 1.91657e-07 
486 1 0.0713511 0.071499 0.0844304 55.845 -3.93536e-07 
487 1 0.107143 0.0714286 0.0416667 55.845 4.52966e-07 
488 1 0.107244 0.107171 0.0843226 55.845 -4.75803e-07 
496 1 0.0715197 6.62374e-06 0.084063 55.845 -4.52678e-07 
497 1 0.107143 0 0.0416667 55.845 -1.24808e-07 
498 1 0.107157 0.0357216 0.084474 55.845 -4.15589e-07 
567 1 0 0.0714286 0 55.845 -3.47819e-08 
568 1 0.0357143 0.107143 0 55.845 2.33265e-07 
572 1 0 0 0 55.845 3.44637e-07 
573 1 0.0357143 0.0357143 0 55.845 2.41097e-08 
574 1 0.0714286 0.0714286 0 55.845 2.62684e-07 
575 1 0.107143 0.107143 0 55.845 2.08191e-07 
579 1 0.0714286 0 0 55.845 6.94532e-08 
580 1 0.107143 0.0357143 0 55.845 2.63716e-07 
285 1 0.142907 0.107147 0.212159 55.845 5.51698e-07 
295 1 0.142777 0.0356863 0.212061 55.845 5.53185e-07 
297 1 0.178583 0.071381 0.212171 55.845 5.7199e-07 
299 1 0.214209 0.107057 0.211991 55.845 4.11806e-07 
307 1 0.178556 -7.17598e-05 0.212044 55.845 3.06028e-07 
309 1 0.214337 0.0356763 0.212141 55.845 3.51132e-07 
311 1 0.250028 0.0715194 0.211975 55.845 5.01478e-07 
387 1 0.14283 0.107232 0.126945 55.845 4.17426e-07 
397 1 0.142853 0.035657 0.126917 55.845 3.35148e-07 
398 1 0.142885 0.0714642 0.169211 55.845 -3.24358e-07 
399 1 0.178485 0.0714509 0.126953 55.845 3.36917e-07 
400 1 0.178598 0.107124 0.169365 55.845 -2.09668e-07 
401 1 0.214267 0.107124 0.126755 55.845 1.02435e-07 
408 1 0.142862 -7.31532e-05 0.169199 55.845 -1.72126e-07 
409 1 0.178589 8.11668e-06 0.126919 55.845 1.04722e-07 
410 1 0.178573 0.0357596 0.169391 55.845 -2.13045e-07 
411 1 0.21433 0.0357108 0.126964 55.845 1.44183e-07 
412 1 0.214305 0.0714454 0.169279 55.845 -2.4492e-07 
413 1 0.249998 0.0714926 0.126855 55.845 1.09852e-07 
414 1 0.24993 0.107197 0.169165 55.845 -1.22308e-07 
424 1 0.214345 3.21104e-05 0.169247 55.845 -6.89933e-10 
426 1 0.250098 0.0357722 0.169237 55.845 -1.41676e-07 
489 1 0.142857 0.107143 0.0416667 55.845 2.21703e-07 
499 1 0.142857 0.0357143 0.0416667 55.845 2.70596e-07 
500 1 0.142918 0.0714099 0.0844787 55.845 -3.66143e-07 
501 1 0.178571 0.0714286 0.0416667 55.845 1.82507e-07 
502 1 0.178616 0.107116 0.0844446 55.845 -5.25516e-07 
503 1 0.214286 0.107143 0.0416667 55.845 1.76869e-08 
510 1 0.142925 -4.54969e-05 0.0842328 55.845 -3.72422e-07 
511 1 0.178571 0 0.0416667 55.845 5.50135e-08 
512 1 0.178549 0.0357113 0.0844368 55.845 -3.23098e-07 
513 1 0.214286 0.0357143 0.0416667 55.845 -6.18751e-08 
514 1 0.214335 0.0713751 0.0844506 55.845 -4.64937e-07 
515 1 0.25 0.0714286 0.0416667 55.845 -4.39149e-08 
516 1 0.25009 0.107183 0.0842297 55.845 -2.45106e-07 
526 1 0.214259 -3.21354e-05 0.0844194 55.845 -2.41292e-07 
528 1 0.250024 0.0356881 0.0844411 55.845 -4.65101e-07 
581 1 0.142857 0.0714286 0 55.845 1.68338e-07 
582 1 0.178571 0.107143 0 55.845 6.07409e-08 
586 1 0.142857 0 0 55.845 6.17974e-08 
587 1 0.178571 0.0357143 0 55.845 1.56032e-07 
588 1 0.214286 0.0714286 0 55.845 -1.57219e-08 
589 1 0.25 0.107143 0 55.845 2.11201e-07 
594 1 0.214286 0 0 55.845 2.90628e-07 
595 1 0.25 0.0357143 0 55.845 1.24392e-07 
313 1 0.285734 0.107146 0.212052 55.845 3.27871e-07 
323 1 0.249994 -2.90847e-05 0.212048 55.845 9.30288e-09 
325 1 0.285751 0.035711 0.212166 55.845 3.13165e-07 
327 1 0.321479 0.0714325 0.212172 55.845 4.79636e-07 
329 1 0.35719 0.107188 0.212151 55.845 5.60889e-07 
337 1 0.321339 -4.03466e-05 0.212106 55.845 2.78383e-07 
339 1 0.357152 0.0357459 0.212197 55.845 3.30691e-07 
415 1 0.285844 0.107132 0.126873 55.845 4.17752e-07 
425 1 0.250143 2.17353e-05 0.126919 55.845 2.85381e-07 
427 1 0.285741 0.0358044 0.126842 55.845 2.83583e-07 
428 1 0.285732 0.0714961 0.16924 55.845 -3.00676e-07 
429 1 0.321424 0.071503 0.126866 55.845 5.73742e-07 
430 1 0.321493 0.107141 0.169218 55.845 -4.26843e-07 
431 1 0.357244 0.107124 0.12695 55.845 6.21019e-07 
439 1 0.321336 6.57632e-05 0.126892 55.845 3.48886e-07 
440 1 0.321489 0.0357269 0.169206 55.845 -3.31306e-07 
441 1 0.357137 0.0357599 0.126947 55.845 5.04777e-07 
442 1 0.357059 0.0714491 0.169334 55.845 -4.36637e-07 
517 1 0.285714 0.107143 0.0416667 55.845 4.90699e-08 
527 1 0.25 0 0.0416667 55.845 -1.71606e-08 
529 1 0.285714 0.0357143 0.0416667 55.845 -9.05641e-09 
530 1 0.285753 0.0714547 0.084369 55.845 -5.25109e-07 
531 1 0.321429 0.0714286 0.0416667 55.845 9.75341e-08 
532 1 0.321416 0.107199 0.0843086 55.845 -5.31286e-07 
533 1 0.357143 0.107143 0.0416667 55.845 1.25884e-07 
603 1 0.357143 0.0714286 0 55.845 2.67735e-07 
541 1 0.321429 0 0.0416667 55.845 1.9012e-08 
542 1 0.321549 0.0357355 0.0842641 55.845 -4.85322e-07 
543 1 0.357143 0.0357143 0.0416667 55.845 2.08676e-07 
544 1 0.357195 0.0715254 0.0843135 55.845 -5.39562e-07 
602 1 0.321429 0.0357143 0 55.845 2.05868e-07 
596 1 0.285714 0.0714286 0 55.845 7.35089e-08 
597 1 0.321429 0.107143 0 55.845 1.99297e-07 
612 1 0.464286 0.0357143 0 55.845 1.56949e-07 
611 1 0.428571 0 0 55.845 1.35945e-07 
610 1 0.464286 0.107143 0 55.845 3.0324e-07 
609 1 0.428571 0.0714286 0 55.845 2.82078e-07 
608 1 0.392857 0.0357143 0 55.845 2.86256e-07 
341 1 0.392897 0.0714482 0.212194 55.845 3.24313e-07 
343 1 0.42861 0.107203 0.212039 55.845 2.66796e-07 
348 1 0.39287 -1.28399e-05 0.211946 55.845 1.27979e-07 
350 1 0.428669 0.0356803 0.212277 55.845 1.09325e-07 
352 1 0.464298 0.0715513 0.21216 55.845 2.13557e-08 
355 1 0.464314 6.09028e-05 0.212036 55.845 -1.21643e-07 
443 1 0.392858 0.0713278 0.127002 55.845 4.88382e-07 
444 1 0.392826 0.107152 0.169418 55.845 -4.22338e-07 
445 1 0.428585 0.107056 0.126746 55.845 3.1281e-07 
604 1 0.392857 0.107143 0 55.845 1.18163e-07 
450 1 0.392869 -2.73877e-05 0.126924 55.845 1.50198e-07 
451 1 0.392868 0.0356932 0.16932 55.845 -1.55826e-07 
452 1 0.428567 0.035661 0.126909 55.845 1.23518e-07 
453 1 0.428517 0.0714442 0.169358 55.845 -5.75484e-08 
454 1 0.464195 0.0714536 0.126816 55.845 -3.03876e-08 
455 1 0.464335 0.107204 0.169254 55.845 -4.53174e-08 
456 1 0.428572 2.98815e-05 0.169155 55.845 1.58167e-07 
457 1 0.464323 -4.76196e-05 0.127028 55.845 -2.43576e-07 
458 1 0.464273 0.0358005 0.169343 55.845 2.06296e-07 
545 1 0.392857 0.0714286 0.0416667 55.845 1.98543e-07 
546 1 0.392904 0.107142 0.0842206 55.845 -4.99779e-07 
547 1 0.428571 0.107143 0.0416667 55.845 1.48183e-07 
552 1 0.392857 0 0.0416667 55.845 -8.99783e-08 
553 1 0.392851 0.0357385 0.0844384 55.845 -3.29578e-07 
554 1 0.428571 0.0357143 0.0416667 55.845 5.08791e-08 
555 1 0.428578 0.071343 0.0843554 55.845 -1.82344e-07 
556 1 0.464286 0.0714286 0.0416667 55.845 -7.8999e-08 
557 1 0.464254 0.107129 0.0843914 55.845 -2.16273e-07 
558 1 0.42854 1.23169e-05 0.0843444 55.845 -2.07424e-07 
559 1 0.464286 0 0.0416667 55.845 -7.9768e-08 
560 1 0.464265 0.0357009 0.0843865 55.845 -8.76515e-08 
255 1 5.66901e-06 0.178573 0.212092 55.845 1.10981e-07 
257 1 0.0356523 0.214221 0.211977 55.845 3.35225e-07 
261 1 0.0356868 0.142988 0.212177 55.845 1.67545e-07 
263 1 0.0714228 0.178594 0.212103 55.845 2.47252e-07 
265 1 0.107209 0.214292 0.212178 55.845 1.80729e-07 
273 1 0.107151 0.142786 0.21208 55.845 4.60895e-07 
357 1 1.00396e-05 0.178573 0.126917 55.845 4.69071e-07 
358 1 -4.69839e-05 0.214263 0.169109 55.845 -1.22797e-07 
359 1 0.0356156 0.214332 0.127017 55.845 2.62967e-07 
360 1 0.0357819 0.250016 0.16931 55.845 -2.09407e-07 
362 1 -7.89507e-06 0.142843 0.169073 55.845 -2.18273e-07 
363 1 0.035747 0.142847 0.126822 55.845 5.8125e-07 
364 1 0.0356421 0.178519 0.169274 55.845 -2.50914e-07 
365 1 0.071364 0.178579 0.126985 55.845 3.81586e-07 
366 1 0.0714347 0.214323 0.169216 55.845 -2.64055e-07 
367 1 0.107154 0.2143 0.12699 55.845 3.20683e-07 
368 1 0.107225 0.250087 0.16932 55.845 -5.79458e-08 
374 1 0.07143 0.142862 0.169341 55.845 -4.48028e-07 
375 1 0.107094 0.142943 0.126888 55.845 4.8169e-07 
376 1 0.107146 0.178605 0.169297 55.845 -3.67277e-07 
459 1 0 0.178571 0.0416667 55.845 1.32242e-07 
460 1 -4.20527e-05 0.214326 0.0843006 55.845 -2.68295e-07 
461 1 0.0357143 0.214286 0.0416667 55.845 -9.54264e-08 
462 1 0.0357411 0.250057 0.0842551 55.845 -5.03325e-07 
464 1 -5.02973e-05 0.142835 0.0844037 55.845 -1.40532e-07 
465 1 0.0357143 0.142857 0.0416667 55.845 1.37494e-07 
466 1 0.0356326 0.178618 0.0843774 55.845 -2.47566e-07 
467 1 0.0714286 0.178571 0.0416667 55.845 -1.32114e-07 
468 1 0.0713841 0.21433 0.0843551 55.845 -4.63106e-07 
469 1 0.107143 0.214286 0.0416667 55.845 -1.43307e-07 
470 1 0.107216 0.24999 0.0845517 55.845 -2.10717e-07 
476 1 0.071527 0.14288 0.0842693 55.845 -5.97232e-07 
477 1 0.107143 0.142857 0.0416667 55.845 2.78139e-08 
478 1 0.107084 0.178668 0.0843753 55.845 -6.45219e-07 
561 1 0 0.214286 0 55.845 2.92139e-07 
562 1 0.0357143 0.25 0 55.845 -9.55416e-09 
563 1 0 0.142857 0 55.845 3.28771e-07 
564 1 0.0357143 0.178571 0 55.845 3.50137e-07 
565 1 0.0714286 0.214286 0 55.845 6.86249e-08 
566 1 0.107143 0.25 0 55.845 3.68588e-07 
569 1 0.0714286 0.142857 0 55.845 2.2431e-07 
570 1 0.107143 0.178571 0 55.845 4.40969e-08 
275 1 0.142859 0.178509 0.212248 55.845 2.89759e-07 
277 1 0.178558 0.214247 0.212104 55.845 -4.07464e-08 
287 1 0.178544 0.142873 0.212084 55.845 4.14623e-07 
289 1 0.214366 0.178645 0.211988 55.845 -7.96555e-08 
291 1 0.250071 0.214316 0.212046 55.845 -8.98537e-08 
301 1 0.250048 0.142883 0.212008 55.845 2.12875e-08 
377 1 0.142933 0.178529 0.1269 55.845 2.20926e-07 
378 1 0.142887 0.214151 0.169343 55.845 4.83316e-09 
379 1 0.178578 0.214307 0.127052 55.845 2.86774e-08 
388 1 0.142874 0.142964 0.169386 55.845 -3.79722e-07 
389 1 0.178626 0.14284 0.126941 55.845 1.51386e-07 
390 1 0.17858 0.178535 0.169236 55.845 1.01748e-09 
391 1 0.214289 0.178563 0.1268 55.845 8.09975e-08 
392 1 0.214255 0.214215 0.169374 55.845 2.17297e-07 
393 1 0.249992 0.214334 0.126975 55.845 -1.13038e-07 
402 1 0.214328 0.142881 0.169207 55.845 6.37517e-08 
403 1 0.25001 0.142884 0.126885 55.845 2.44534e-07 
404 1 0.250063 0.178586 0.169103 55.845 1.24523e-07 
479 1 0.142857 0.178571 0.0416667 55.845 -2.17056e-07 
480 1 0.142826 0.214269 0.0843135 55.845 -1.82231e-07 
481 1 0.178571 0.214286 0.0416667 55.845 4.81715e-08 
490 1 0.14275 0.142867 0.0844906 55.845 -6.43714e-07 
491 1 0.178571 0.142857 0.0416667 55.845 -1.24706e-07 
492 1 0.178646 0.178551 0.0842515 55.845 -1.82468e-07 
493 1 0.214286 0.178571 0.0416667 55.845 9.8102e-09 
494 1 0.21432 0.214291 0.0842309 55.845 -2.08503e-08 
495 1 0.25 0.214286 0.0416667 55.845 -2.5223e-07 
504 1 0.214325 0.142852 0.0843364 55.845 -1.77404e-07 
505 1 0.25 0.142857 0.0416667 55.845 1.49505e-08 
506 1 0.250042 0.17857 0.0842553 55.845 -2.80792e-09 
571 1 0.142857 0.214286 0 55.845 3.1678e-07 
576 1 0.142857 0.142857 0 55.845 2.20313e-08 
577 1 0.178571 0.178571 0 55.845 1.81667e-07 
578 1 0.214286 0.214286 0 55.845 2.74155e-07 
583 1 0.214286 0.142857 0 55.845 3.05202e-07 
584 1 0.25 0.178571 0 55.845 4.03371e-07 
303 1 0.285751 0.178638 0.212013 55.845 -2.7817e-08 
305 1 0.321352 0.214297 0.211967 55.845 9.75069e-08 
315 1 0.321441 0.142998 0.211974 55.845 3.38568e-07 
317 1 0.357142 0.178613 0.212089 55.845 4.37933e-07 
405 1 0.285675 0.17861 0.126805 55.845 2.3683e-07 
406 1 0.285693 0.214286 0.169191 55.845 9.30619e-09 
407 1 0.321459 0.21434 0.126785 55.845 3.04033e-07 
416 1 0.285739 0.142909 0.169222 55.845 -1.58383e-07 
417 1 0.321461 0.142846 0.126853 55.845 4.1536e-07 
418 1 0.321433 0.178607 0.169213 55.845 -2.15038e-07 
419 1 0.357203 0.178544 0.126738 55.845 4.12369e-07 
420 1 0.357096 0.214289 0.169162 55.845 -2.84055e-07 
432 1 0.357172 0.142882 0.169297 55.845 -4.80712e-07 
507 1 0.285714 0.178571 0.0416667 55.845 -2.40896e-08 
508 1 0.285654 0.214319 0.0843413 55.845 -2.71349e-07 
509 1 0.321429 0.214286 0.0416667 55.845 -1.09535e-07 
518 1 0.285725 0.142932 0.0843104 55.845 -1.42255e-07 
519 1 0.321429 0.142857 0.0416667 55.845 8.58507e-08 
520 1 0.32142 0.178538 0.0845244 55.845 -4.19074e-07 
521 1 0.357143 0.178571 0.0416667 55.845 -1.11888e-07 
522 1 0.357109 0.214334 0.0842977 55.845 -3.21449e-07 
534 1 0.35714 0.142791 0.0843357 55.845 -7.20022e-07 
585 1 0.285714 0.214286 0 55.845 2.28269e-07 
590 1 0.285714 0.142857 0 55.845 3.935e-07 
591 1 0.321429 0.178571 0 55.845 2.02415e-07 
592 1 0.357143 0.214286 0 55.845 2.98451e-07 
598 1 0.357143 0.142857 0 55.845 1.30886e-08 
319 1 0.392847 0.214414 0.212045 55.845 3.57659e-07 
321 1 0.428631 0.24993 0.212057 55.845 2.66686e-07 
331 1 0.393011 0.142935 0.212194 55.845 5.34603e-07 
333 1 0.428591 0.178589 0.212158 55.845 3.12256e-07 
335 1 0.464206 0.214299 0.212074 55.845 2.21161e-07 
345 1 0.464361 0.142869 0.212201 55.845 8.92563e-08 
606 1 0.464286 0.178571 0 55.845 3.22418e-07 
421 1 0.392908 0.21424 0.12678 55.845 3.59983e-07 
422 1 0.392861 0.250049 0.16942 55.845 -9.63839e-08 
423 1 0.428527 0.24993 0.126968 55.845 1.61339e-07 
433 1 0.392913 0.142901 0.126812 55.845 4.03668e-07 
434 1 0.392935 0.178578 0.169314 55.845 -3.22598e-07 
435 1 0.428566 0.178552 0.126901 55.845 2.54828e-07 
436 1 0.428618 0.214287 0.169168 55.845 -1.30234e-07 
437 1 0.464337 0.214251 0.126942 55.845 1.46077e-07 
605 1 0.428571 0.142857 0 55.845 1.57565e-07 
446 1 0.428566 0.142813 0.169309 55.845 -2.77477e-07 
447 1 0.46421 0.142852 0.126948 55.845 3.48377e-07 
448 1 0.464311 0.178563 0.169245 55.845 -9.7779e-08 
523 1 0.392857 0.214286 0.0416667 55.845 1.48186e-07 
524 1 0.392785 0.25003 0.0844139 55.845 -1.91414e-07 
525 1 0.428571 0.25 0.0416667 55.845 1.32404e-07 
535 1 0.392857 0.142857 0.0416667 55.845 -9.95033e-08 
536 1 0.392944 0.178472 0.0844085 55.845 -6.42571e-07 
537 1 0.428571 0.178571 0.0416667 55.845 -1.31167e-07 
538 1 0.428661 0.21431 0.0843105 55.845 -3.65217e-07 
539 1 0.464286 0.214286 0.0416667 55.845 -6.44908e-08 
548 1 0.428594 0.142782 0.0843506 55.845 -4.4797e-07 
549 1 0.464286 0.142857 0.0416667 55.845 5.82988e-09 
550 1 0.464299 0.178492 0.0844329 55.845 -2.35923e-07 
593 1 0.392857 0.25 0 55.845 3.43188e-07 
599 1 0.392857 0.178571 0 55.845 2.99792e-08 
600 1 0.428571 0.214286 0 55.845 1.19194e-07 
3 1 -5.10451e-05 0.107182 0.463218 55.845 2.44966e-07 
7 1 -3.63264e-05 0.0358 0.463351 55.845 6.77615e-07 
8 1 0.0357089 0.0714418 0.463236 55.845 4.93126e-07 
9 1 0.0714649 0.107195 0.463111 55.845 2.28953e-07 
13 1 0.0356196 7.85992e-05 0.463391 55.845 7.74057e-07 
14 1 0.0714335 0.0356714 0.46326 55.845 5.69065e-07 
15 1 0.107109 0.0714598 0.463235 55.845 4.51269e-07 
20 1 0.107093 6.6836e-05 0.463211 55.845 4.20802e-07 
55 1 3.33106e-05 0.107056 0.379999 55.845 4.94346e-07 
63 1 -3.249e-05 0.0356204 0.380213 55.845 7.43813e-07 
64 1 -8.32626e-05 0.0713264 0.422123 55.845 -4.13308e-07 
65 1 0.0356217 0.0714189 0.380113 55.845 3.63871e-07 
66 1 0.0356824 0.107071 0.422153 55.845 1.16142e-08 
67 1 0.0714952 0.107111 0.380021 55.845 8.18436e-08 
74 1 1.4129e-05 -3.08922e-05 0.422162 55.845 -6.77981e-07 
75 1 0.0357183 -4.91859e-05 0.379986 55.845 6.56502e-07 
76 1 0.0357016 0.0357515 0.422149 55.845 -5.66653e-07 
77 1 0.0714367 0.0356058 0.379957 55.845 2.84849e-07 
78 1 0.071403 0.0714296 0.422087 55.845 -2.76625e-08 
79 1 0.107172 0.0714193 0.380006 55.845 1.77165e-07 
80 1 0.10718 0.107085 0.421911 55.845 -4.21593e-08 
88 1 0.0714211 -4.90911e-05 0.422002 55.845 -4.1046e-07 
89 1 0.107028 -5.95686e-05 0.379934 55.845 4.60222e-07 
90 1 0.107055 0.0357553 0.421959 55.845 -2.23269e-07 
157 1 -6.98976e-05 0.10714 0.296136 55.845 6.75111e-07 
165 1 -5.28064e-05 0.0356991 0.295984 55.845 6.63872e-07 
166 1 -8.05932e-05 0.0713735 0.337591 55.845 -3.86454e-07 
167 1 0.0357576 0.071459 0.296044 55.845 7.3655e-07 
168 1 0.0357325 0.107143 0.337512 55.845 -4.7874e-07 
169 1 0.071455 0.107028 0.296047 55.845 2.95603e-07 
176 1 -9.88858e-05 -6.6539e-05 0.337526 55.845 -8.56601e-07 
177 1 0.0356807 -4.05186e-05 0.29592 55.845 4.80165e-07 
178 1 0.0356763 0.0356473 0.337517 55.845 -5.13881e-07 
179 1 0.0714259 0.035692 0.29585 55.845 5.71851e-07 
180 1 0.0713567 0.0713123 0.33748 55.845 -4.23345e-07 
181 1 0.107077 0.0714091 0.296037 55.845 2.84279e-07 
182 1 0.107159 0.107136 0.337611 55.845 -3.56013e-07 
190 1 0.0713791 -7.18088e-05 0.337449 55.845 -4.34135e-07 
191 1 0.107109 -9.55988e-05 0.295929 55.845 6.52788e-07 
192 1 0.107173 0.035624 0.337547 55.845 -4.57553e-07 
268 1 -1.29753e-05 0.07142 0.25407 55.845 -3.60719e-07 
270 1 0.0357286 0.107168 0.254153 55.845 -4.59217e-07 
278 1 0.000143214 -9.46977e-05 0.253955 55.845 -8.07653e-07 
280 1 0.035682 0.0357603 0.254132 55.845 -6.26458e-07 
282 1 0.0714493 0.0712954 0.254048 55.845 -6.52562e-07 
284 1 0.107197 0.107123 0.254168 55.845 -7.41365e-07 
292 1 0.0713777 -2.56122e-05 0.254233 55.845 -5.58067e-07 
294 1 0.107096 0.0356778 0.254097 55.845 -7.76256e-07 
16 1 0.142868 0.107249 0.463278 55.845 3.64078e-07 
21 1 0.14284 0.035757 0.463235 55.845 6.20875e-07 
22 1 0.178588 0.0714685 0.463319 55.845 7.34316e-07 
23 1 0.214339 0.107126 0.463355 55.845 7.35185e-07 
27 1 0.17856 -2.83559e-05 0.463167 55.845 5.93285e-07 
28 1 0.214235 0.0357015 0.463317 55.845 6.53562e-07 
29 1 0.250066 0.071417 0.463429 55.845 5.3807e-07 
81 1 0.142866 0.10711 0.380049 55.845 2.72316e-07 
91 1 0.142702 0.0357151 0.380037 55.845 3.52795e-07 
92 1 0.142867 0.0714106 0.42208 55.845 -3.73503e-07 
93 1 0.178614 0.071393 0.380005 55.845 4.29747e-07 
94 1 0.178609 0.107103 0.4222 55.845 -4.71964e-07 
95 1 0.214358 0.107109 0.380109 55.845 5.92641e-07 
102 1 0.142775 7.70721e-05 0.422011 55.845 -3.01384e-07 
103 1 0.178494 7.26386e-05 0.380063 55.845 5.45942e-07 
104 1 0.178463 0.0357907 0.422269 55.845 -5.6219e-07 
105 1 0.214237 0.0356957 0.380096 55.845 6.00796e-07 
106 1 0.214309 0.0714255 0.42218 55.845 -5.24919e-07 
107 1 0.250057 0.071523 0.380108 55.845 6.21171e-07 
108 1 0.250035 0.107219 0.422267 55.845 -4.91302e-07 
118 1 0.214313 -4.15057e-05 0.421963 55.845 -3.77727e-07 
120 1 0.249973 0.0357697 0.422027 55.845 -3.89577e-07 
183 1 0.142827 0.107093 0.29605 55.845 5.6553e-07 
193 1 0.142883 0.0357529 0.296088 55.845 4.61701e-07 
194 1 0.142828 0.0714785 0.337538 55.845 -5.20243e-07 
195 1 0.178621 0.0714462 0.296141 55.845 6.9255e-07 
196 1 0.178644 0.10717 0.337429 55.845 -5.12717e-07 
197 1 0.214347 0.107102 0.295984 55.845 6.99859e-07 
204 1 0.142858 -1.41012e-05 0.33737 55.845 -4.76103e-07 
205 1 0.178617 3.16626e-05 0.295886 55.845 3.91806e-07 
206 1 0.178549 0.0357991 0.337687 55.845 -4.96766e-07 
207 1 0.214373 0.0357223 0.29604 55.845 6.13048e-07 
208 1 0.214354 0.0714277 0.337457 55.845 -5.7531e-07 
209 1 0.250045 0.0715116 0.296082 55.845 6.49897e-07 
210 1 0.25005 0.107181 0.337527 55.845 -6.37136e-07 
220 1 0.214312 9.79541e-05 0.33768 55.845 -5.10827e-07 
222 1 0.250008 0.0357336 0.337606 55.845 -4.76296e-07 
296 1 0.142827 0.0714328 0.254089 55.845 -8.80946e-07 
298 1 0.178649 0.10716 0.254179 55.845 -6.93453e-07 
306 1 0.142792 -8.34922e-05 0.254171 55.845 -3.94577e-07 
308 1 0.178499 0.0356962 0.254131 55.845 -7.57356e-07 
310 1 0.214365 0.071426 0.253996 55.845 -6.1812e-07 
312 1 0.250038 0.107206 0.254046 55.845 -5.35347e-07 
322 1 0.214273 -3.66324e-05 0.254172 55.845 -4.44316e-07 
324 1 0.250066 0.0357398 0.254041 55.845 -4.09315e-07 
30 1 0.285704 0.107064 0.463248 55.845 3.48627e-07 
35 1 0.249994 -9.37723e-05 0.46316 55.845 6.14738e-07 
36 1 0.285769 0.035627 0.463176 55.845 2.38686e-07 
37 1 0.321429 0.0713985 0.463174 55.845 9.12824e-08 
38 1 0.357134 0.107137 0.463176 55.845 8.59783e-08 
42 1 0.321449 2.43494e-05 0.463162 55.845 1.24652e-07 
43 1 0.357183 0.0356761 0.463173 55.845 9.71681e-09 
109 1 0.285684 0.107186 0.380081 55.845 4.07463e-07 
119 1 0.25007 -5.72638e-05 0.380071 55.845 3.53364e-07 
121 1 0.285756 0.0356885 0.380107 55.845 3.06702e-07 
122 1 0.285772 0.071428 0.422043 55.845 -1.65974e-07 
123 1 0.321416 0.0713602 0.379974 55.845 6.87164e-08 
124 1 0.321396 0.107126 0.422036 55.845 1.55311e-07 
125 1 0.357079 0.107163 0.38004 55.845 -6.07615e-08 
133 1 0.321395 -7.02828e-05 0.380092 55.845 1.00264e-07 
134 1 0.321369 0.0356082 0.422081 55.845 1.80377e-07 
135 1 0.357172 0.0356959 0.380173 55.845 -5.29499e-08 
136 1 0.357077 0.0714925 0.422059 55.845 2.71676e-07 
211 1 0.285697 0.107149 0.295982 55.845 5.01423e-07 
221 1 0.249935 7.91216e-05 0.296082 55.845 4.10441e-07 
223 1 0.28568 0.0356865 0.295988 55.845 5.33529e-07 
224 1 0.285755 0.0713655 0.337433 55.845 -3.75103e-07 
225 1 0.321415 0.0715398 0.296038 55.845 4.94087e-07 
226 1 0.321432 0.107128 0.337562 55.845 -3.60222e-07 
227 1 0.357111 0.107167 0.295982 55.845 5.52957e-07 
235 1 0.321455 -7.91812e-06 0.296001 55.845 1.94049e-07 
236 1 0.321494 0.0357299 0.337555 55.845 -3.09058e-07 
237 1 0.357107 0.0357802 0.295959 55.845 2.38151e-07 
238 1 0.357163 0.0714428 0.337545 55.845 -2.69077e-07 
326 1 0.285694 0.0714818 0.254142 55.845 -5.28601e-07 
328 1 0.321437 0.107208 0.254058 55.845 -5.20898e-07 
338 1 0.32143 0.0357619 0.253971 55.845 -4.68111e-07 
340 1 0.357154 0.0714785 0.254175 55.845 -5.77184e-07 
44 1 0.392845 0.071433 0.463199 55.845 1.27151e-07 
45 1 0.428661 0.107229 0.463302 55.845 2.88236e-07 
47 1 0.392881 -2.17519e-05 0.46325 55.845 1.88146e-07 
48 1 0.428588 0.0357056 0.46327 55.845 3.92933e-07 
49 1 0.46437 0.0713925 0.463197 55.845 4.80311e-07 
50 1 0.46425 -3.37102e-05 0.463323 55.845 5.28785e-07 
137 1 0.392908 0.0714641 0.380157 55.845 -1.66036e-08 
138 1 0.392943 0.107181 0.422142 55.845 1.30506e-07 
139 1 0.428646 0.107142 0.380157 55.845 2.37001e-07 
144 1 0.392909 -9.96941e-06 0.380021 55.845 1.03651e-07 
145 1 0.392875 0.0357016 0.422149 55.845 1.26353e-07 
146 1 0.428607 0.0356393 0.380091 55.845 1.67682e-07 
147 1 0.428577 0.0714596 0.422115 55.845 -9.76229e-08 
148 1 0.464325 0.0713523 0.380089 55.845 2.97478e-07 
149 1 0.464363 0.107112 0.422218 55.845 -2.19471e-07 
150 1 0.428553 -1.03826e-05 0.422031 55.845 -6.431e-08 
151 1 0.464362 -5.44103e-05 0.380075 55.845 3.45832e-07 
152 1 0.464351 0.0356816 0.421944 55.845 -3.3006e-07 
239 1 0.392871 0.0715113 0.296062 55.845 1.79576e-07 
240 1 0.3929 0.107232 0.337702 55.845 -2.79827e-07 
241 1 0.428568 0.107117 0.295989 55.845 3.16535e-07 
246 1 0.392817 -9.81835e-05 0.29592 55.845 2.88176e-07 
247 1 0.392798 0.035708 0.337513 55.845 -2.6299e-07 
248 1 0.428676 0.0357486 0.296034 55.845 1.27007e-07 
249 1 0.428547 0.07139 0.337706 55.845 -3.44612e-07 
250 1 0.464258 0.0714363 0.296046 55.845 2.38039e-07 
251 1 0.464281 0.107089 0.337613 55.845 -5.28856e-07 
252 1 0.428607 -1.94426e-06 0.337433 55.845 -2.08938e-07 
253 1 0.464317 1.98718e-05 0.295971 55.845 1.52792e-07 
254 1 0.46437 0.0356876 0.337477 55.845 -1.60995e-07 
342 1 0.392885 0.107202 0.254178 55.845 -5.56166e-07 
349 1 0.392886 0.0357413 0.254146 55.845 -4.64251e-07 
351 1 0.428587 0.07148 0.254234 55.845 -4.84564e-07 
353 1 0.46429 0.107216 0.254374 55.845 -3.15518e-07 
354 1 0.428518 -4.61107e-05 0.25405 55.845 -3.15875e-08 
356 1 0.464402 0.0357268 0.254285 55.845 -1.04673e-07 
1 1 -1.60758e-05 0.178576 0.463223 55.845 4.50384e-07 
2 1 0.0357645 0.214315 0.463399 55.845 3.94358e-07 
4 1 0.0357554 0.142908 0.463245 55.845 1.5822e-07 
5 1 0.0715073 0.178614 0.46348 55.845 -1.03919e-08 
6 1 0.10717 0.214386 0.463267 55.845 2.6349e-07 
10 1 0.107194 0.142884 0.463227 55.845 3.69878e-08 
51 1 7.75441e-05 0.178633 0.38013 55.845 3.91859e-07 
52 1 8.66399e-06 0.214222 0.422218 55.845 -4.01385e-07 
53 1 0.0358038 0.214349 0.380097 55.845 3.66622e-07 
54 1 0.0357267 0.250028 0.422296 55.845 -4.68405e-07 
56 1 7.46384e-05 0.142852 0.42197 55.845 -4.29699e-08 
57 1 0.0357865 0.142805 0.37991 55.845 2.5379e-07 
58 1 0.0357874 0.178588 0.422043 55.845 -5.02636e-09 
59 1 0.0714206 0.178671 0.380004 55.845 1.50629e-07 
60 1 0.0714274 0.214335 0.422223 55.845 -5.47212e-08 
61 1 0.107157 0.214308 0.380174 55.845 2.92071e-07 
62 1 0.107195 0.250063 0.422147 55.845 -2.82991e-07 
68 1 0.0713931 0.142892 0.422037 55.845 1.67382e-07 
69 1 0.107239 0.142945 0.380157 55.845 1.91707e-07 
70 1 0.107172 0.178575 0.422034 55.845 1.31904e-07 
153 1 -3.05577e-05 0.178644 0.296018 55.845 2.38515e-07 
154 1 1.01927e-05 0.214257 0.337652 55.845 -6.96764e-07 
155 1 0.0357347 0.214387 0.296114 55.845 4.99979e-07 
156 1 0.0357565 0.250057 0.337711 55.845 -4.63736e-07 
158 1 2.81469e-05 0.14284 0.33752 55.845 -7.69199e-07 
159 1 0.0357409 0.142861 0.29608 55.845 2.54282e-07 
160 1 0.035766 0.178631 0.337414 55.845 -5.03036e-07 
161 1 0.0714126 0.17858 0.29606 55.845 4.27856e-07 
162 1 0.071467 0.214239 0.337546 55.845 -3.78173e-07 
163 1 0.107142 0.21433 0.296001 55.845 4.66327e-07 
164 1 0.107238 0.249977 0.337545 55.845 -4.36631e-07 
170 1 0.0714607 0.142872 0.337521 55.845 -3.18815e-07 
171 1 0.107213 0.1429 0.296157 55.845 5.0029e-07 
172 1 0.107171 0.178646 0.33749 55.845 -3.08536e-07 
256 1 5.40163e-05 0.214258 0.254161 55.845 -6.79573e-07 
258 1 0.0357137 0.24999 0.254138 55.845 -4.81474e-07 
260 1 -1.65484e-06 0.142891 0.254203 55.845 -2.6484e-07 
262 1 0.0357324 0.178637 0.254176 55.845 -4.24044e-07 
264 1 0.0713772 0.214319 0.254124 55.845 -2.51101e-07 
266 1 0.10718 0.250031 0.254162 55.845 -4.60571e-07 
272 1 0.0714771 0.142841 0.254285 55.845 -3.92906e-07 
274 1 0.107066 0.178605 0.254151 55.845 -2.42684e-07 
11 1 0.142848 0.178705 0.463276 55.845 2.86175e-07 
12 1 0.178619 0.214312 0.463319 55.845 5.26818e-07 
17 1 0.178562 0.142903 0.463261 55.845 6.04249e-07 
18 1 0.214284 0.178564 0.463117 55.845 7.52953e-07 
19 1 0.250053 0.214338 0.463362 55.845 3.46731e-07 
24 1 0.250075 0.142921 0.463372 55.845 7.01103e-07 
71 1 0.142815 0.178616 0.380098 55.845 3.26603e-07 
72 1 0.142875 0.214342 0.422039 55.845 -1.84657e-07 
73 1 0.17866 0.214359 0.380032 55.845 3.04756e-07 
82 1 0.142901 0.142922 0.422126 55.845 -7.06508e-08 
83 1 0.178704 0.142858 0.380043 55.845 5.4806e-07 
84 1 0.178668 0.178665 0.422187 55.845 -4.08862e-07 
85 1 0.21426 0.17857 0.379996 55.845 5.01149e-07 
86 1 0.214332 0.214347 0.422065 55.845 -2.63777e-07 
87 1 0.24999 0.214304 0.380161 55.845 4.11079e-07 
96 1 0.214446 0.142833 0.422125 55.845 -5.35608e-07 
97 1 0.250035 0.142883 0.380034 55.845 4.47194e-07 
98 1 0.249932 0.178698 0.421963 55.845 -2.00564e-07 
173 1 0.142932 0.178545 0.295934 55.845 5.24462e-07 
174 1 0.142845 0.214283 0.337509 55.845 -3.49528e-07 
175 1 0.178621 0.214302 0.296029 55.845 1.82867e-07 
184 1 0.142872 0.142851 0.337527 55.845 -2.66863e-07 
185 1 0.178605 0.142971 0.295997 55.845 5.72014e-07 
186 1 0.178638 0.178679 0.337576 55.845 -3.94085e-07 
187 1 0.214433 0.17859 0.295922 55.845 2.98524e-07 
188 1 0.214367 0.21427 0.337497 55.845 -4.784e-07 
189 1 0.250138 0.214307 0.295935 55.845 2.26291e-07 
198 1 0.214322 0.142812 0.337618 55.845 -6.31615e-07 
199 1 0.250029 0.142904 0.295936 55.845 3.88734e-07 
200 1 0.250065 0.178718 0.337539 55.845 -6.76979e-07 
276 1 0.142912 0.214287 0.25401 55.845 -2.62062e-07 
286 1 0.142796 0.142727 0.254212 55.845 -4.47211e-07 
288 1 0.178691 0.178617 0.254193 55.845 -2.82433e-07 
290 1 0.214245 0.214284 0.254126 55.845 -4.71009e-08 
300 1 0.214308 0.142936 0.25401 55.845 -5.05089e-07 
302 1 0.250095 0.178614 0.254008 55.845 -2.5361e-07 
25 1 0.285676 0.178574 0.463138 55.845 3.4098e-07 
26 1 0.321476 0.214305 0.463258 55.845 2.52313e-07 
31 1 0.321404 0.142762 0.463346 55.845 5.75108e-08 
32 1 0.357123 0.178641 0.46328 55.845 1.17544e-07 
99 1 0.285715 0.178491 0.380054 55.845 3.31815e-07 
100 1 0.28573 0.214327 0.421982 55.845 -5.20218e-08 
101 1 0.321439 0.214427 0.380115 55.845 1.35185e-07 
110 1 0.285791 0.14288 0.42197 55.845 -1.67653e-07 
111 1 0.321511 0.142844 0.380057 55.845 2.30521e-07 
112 1 0.321432 0.178657 0.422084 55.845 2.27251e-08 
113 1 0.357171 0.178617 0.380054 55.845 2.81688e-07 
114 1 0.357244 0.214336 0.422176 55.845 -1.05516e-07 
126 1 0.357107 0.142927 0.422228 55.845 1.23345e-07 
201 1 0.285773 0.178616 0.29601 55.845 1.66408e-07 
202 1 0.285732 0.214286 0.337583 55.845 -3.25837e-07 
203 1 0.321456 0.214325 0.296115 55.845 2.84556e-07 
212 1 0.285779 0.14287 0.337499 55.845 -7.47672e-07 
213 1 0.321459 0.142931 0.295994 55.845 4.12747e-07 
214 1 0.321519 0.17865 0.337717 55.845 -3.84586e-07 
215 1 0.357168 0.178525 0.29601 55.845 4.76669e-07 
216 1 0.357118 0.214355 0.337517 55.845 -4.17569e-07 