ITEM: TIMESTEP
1100
ITEM: NUMBER OF ATOMS
5880
ITEM: BOX BOUNDS pp pp ff
-27.9136 27.9136
-27.9136 27.9136
0 34.092
ITEM: ATOMS id type xs ys zs mass q 
259 1 1.31094e-05 0.107098 0.210174 55.845 2.2452e-07 
267 1 1.60884e-06 0.0357743 0.210154 55.845 -5.61079e-07 
269 1 0.035744 0.0714206 0.21009 55.845 1.35611e-07 
271 1 0.0714466 0.107174 0.210103 55.845 -9.08306e-08 
279 1 0.0356764 -4.93739e-06 0.210276 55.845 -3.09258e-07 
281 1 0.0714802 0.0357464 0.210111 55.845 -1.24462e-07 
283 1 0.107148 0.0714459 0.210078 55.845 -2.11508e-07 
293 1 0.107183 -3.52672e-05 0.210091 55.845 8.74041e-08 
361 1 6.03608e-06 0.107113 0.126481 55.845 2.3893e-07 
369 1 5.46498e-05 0.0356112 0.126533 55.845 3.63253e-07 
370 1 7.60656e-06 0.0714315 0.168341 55.845 2.2552e-07 
371 1 0.0357036 0.0713552 0.126562 55.845 -4.79804e-07 
372 1 0.0357894 0.107095 0.168315 55.845 -2.74312e-08 
373 1 0.0714548 0.107128 0.126517 55.845 -1.21652e-07 
380 1 2.06272e-05 7.4593e-05 0.168354 55.845 -2.97463e-07 
381 1 0.0356982 1.6139e-05 0.126558 55.845 5.74818e-07 
382 1 0.0357042 0.0356419 0.16838 55.845 -1.17869e-07 
383 1 0.0714087 0.0357464 0.126526 55.845 -1.39091e-08 
384 1 0.071424 0.0714186 0.168292 55.845 -2.68557e-07 
385 1 0.107141 0.0714618 0.126451 55.845 -1.81443e-07 
386 1 0.107135 0.107152 0.168293 55.845 3.51821e-08 
394 1 0.0713857 4.01256e-05 0.168458 55.845 1.19653e-07 
395 1 0.10712 -5.73033e-05 0.126618 55.845 3.36205e-08 
396 1 0.107136 0.0357159 0.168131 55.845 -3.98052e-07 
463 1 0 0.107143 0.0416667 55.845 8.47135e-08 
471 1 0 0.0357143 0.0416667 55.845 2.76334e-07 
472 1 1.79046e-05 0.0714834 0.0844712 55.845 -2.916e-07 
473 1 0.0357143 0.0714286 0.0416667 55.845 -4.72155e-08 
474 1 0.0357347 0.107082 0.0845003 55.845 -6.57711e-08 
475 1 0.0714286 0.107143 0.0416667 55.845 1.93725e-07 
482 1 -4.13647e-05 -1.19062e-05 0.084455 55.845 1.77562e-07 
483 1 0.0357143 0 0.0416667 55.845 7.95638e-08 
484 1 0.0357404 0.0357132 0.0843894 55.845 3.49731e-07 
485 1 0.0714286 0.0357143 0.0416667 55.845 -5.38509e-08 
486 1 0.0714383 0.0714728 0.0844321 55.845 -3.75895e-07 
487 1 0.107143 0.0714286 0.0416667 55.845 1.09414e-07 
488 1 0.107175 0.107093 0.0845178 55.845 2.42234e-07 
496 1 0.0714023 4.11948e-05 0.0845294 55.845 4.72395e-07 
497 1 0.107143 0 0.0416667 55.845 2.91077e-07 
498 1 0.10716 0.0357088 0.0844232 55.845 8.27749e-08 
567 1 0 0.0714286 0 55.845 -4.13964e-07 
568 1 0.0357143 0.107143 0 55.845 1.45998e-07 
572 1 0 0 0 55.845 -1.88978e-07 
573 1 0.0357143 0.0357143 0 55.845 -5.42689e-07 
574 1 0.0714286 0.0714286 0 55.845 1.05341e-08 
575 1 0.107143 0.107143 0 55.845 -3.7694e-07 
579 1 0.0714286 0 0 55.845 -5.58212e-07 
580 1 0.107143 0.0357143 0 55.845 9.3176e-08 
285 1 0.142859 0.107178 0.210067 55.845 1.09375e-07 
295 1 0.14287 0.0357271 0.210081 55.845 1.5011e-07 
297 1 0.178592 0.0713544 0.210212 55.845 -2.14395e-07 
299 1 0.214379 0.107184 0.210194 55.845 4.46414e-07 
307 1 0.178565 2.10873e-06 0.210067 55.845 3.09642e-07 
309 1 0.214282 0.0357246 0.210113 55.845 -3.22665e-07 
311 1 0.250012 0.0714563 0.210201 55.845 3.72361e-07 
387 1 0.142799 0.107183 0.126608 55.845 6.67381e-07 
397 1 0.14289 0.0356707 0.126463 55.845 -1.24498e-07 
398 1 0.142872 0.0713838 0.168254 55.845 -1.16689e-08 
399 1 0.178597 0.0713985 0.126546 55.845 8.92872e-07 
400 1 0.178586 0.107055 0.168495 55.845 -1.12165e-07 
401 1 0.214331 0.107146 0.126614 55.845 1.13995e-07 
408 1 0.142822 -2.10704e-05 0.168334 55.845 -8.11571e-08 
409 1 0.178597 -5.93152e-05 0.126617 55.845 -1.87881e-07 
410 1 0.178581 0.0357079 0.168331 55.845 -5.6793e-08 
411 1 0.214277 0.0357098 0.126529 55.845 5.74329e-07 
412 1 0.214334 0.0713474 0.168386 55.845 3.09349e-07 
413 1 0.249972 0.0714467 0.126457 55.845 3.41111e-08 
414 1 0.250009 0.107145 0.168294 55.845 4.18554e-07 
424 1 0.214253 -4.46757e-05 0.168386 55.845 1.54663e-07 
426 1 0.250033 0.0356978 0.168372 55.845 1.90891e-07 
489 1 0.142857 0.107143 0.0416667 55.845 1.14362e-07 
499 1 0.142857 0.0357143 0.0416667 55.845 3.17273e-07 
500 1 0.142867 0.0713897 0.0844704 55.845 5.05328e-07 
501 1 0.178571 0.0714286 0.0416667 55.845 -4.67314e-11 
502 1 0.178534 0.107143 0.0845049 55.845 -6.04106e-08 
503 1 0.214286 0.107143 0.0416667 55.845 2.84504e-07 
510 1 0.142886 -2.07956e-05 0.0844555 55.845 -1.84862e-07 
511 1 0.178571 0 0.0416667 55.845 2.82103e-08 
512 1 0.178581 0.0357015 0.0844735 55.845 1.86096e-07 
513 1 0.214286 0.0357143 0.0416667 55.845 1.51785e-07 
514 1 0.214267 0.0714532 0.0844379 55.845 1.01886e-07 
515 1 0.25 0.0714286 0.0416667 55.845 3.14073e-07 
516 1 0.249997 0.107169 0.0844095 55.845 -7.35321e-08 
526 1 0.214293 -2.74685e-05 0.084501 55.845 -3.40702e-08 
528 1 0.249978 0.0357834 0.084541 55.845 -1.01187e-07 
581 1 0.142857 0.0714286 0 55.845 -5.32545e-07 
582 1 0.178571 0.107143 0 55.845 -4.96184e-07 
586 1 0.142857 0 0 55.845 1.52922e-07 
587 1 0.178571 0.0357143 0 55.845 -1.76594e-07 
588 1 0.214286 0.0714286 0 55.845 1.74671e-07 
589 1 0.25 0.107143 0 55.845 1.477e-08 
594 1 0.214286 0 0 55.845 -2.04332e-08 
595 1 0.25 0.0357143 0 55.845 1.69034e-07 
313 1 0.285731 0.107234 0.210005 55.845 4.593e-08 
323 1 0.249955 -4.0949e-05 0.210123 55.845 -1.98989e-07 
325 1 0.28572 0.0356947 0.210152 55.845 2.46654e-07 
327 1 0.321367 0.07143 0.210061 55.845 -8.93793e-08 
329 1 0.357235 0.107129 0.210015 55.845 9.77071e-08 
337 1 0.321443 5.06729e-06 0.2102 55.845 1.0467e-07 
339 1 0.357134 0.0356825 0.210122 55.845 -5.34766e-08 
415 1 0.285758 0.107165 0.126587 55.845 2.24421e-07 
425 1 0.249985 -2.20327e-05 0.126559 55.845 1.95715e-07 
427 1 0.285652 0.0356892 0.12654 55.845 -3.05759e-07 
428 1 0.285647 0.0714258 0.168249 55.845 -2.74804e-07 
429 1 0.321379 0.0714535 0.126506 55.845 -2.35941e-07 
430 1 0.321436 0.107155 0.168328 55.845 -1.85019e-07 
431 1 0.357165 0.107099 0.126564 55.845 5.48912e-08 
439 1 0.321357 -2.05292e-05 0.126573 55.845 1.58082e-07 
440 1 0.321436 0.0357798 0.168343 55.845 -8.7037e-08 
441 1 0.357163 0.0356561 0.126595 55.845 2.11496e-07 
442 1 0.357201 0.071404 0.168257 55.845 -3.60722e-08 
517 1 0.285714 0.107143 0.0416667 55.845 -3.59459e-07 
527 1 0.25 0 0.0416667 55.845 -1.44555e-07 
529 1 0.285714 0.0357143 0.0416667 55.845 2.62991e-07 
530 1 0.285792 0.0714905 0.0844609 55.845 -3.90593e-07 
531 1 0.321429 0.0714286 0.0416667 55.845 2.59688e-07 
532 1 0.321503 0.107122 0.0844703 55.845 1.0476e-07 
533 1 0.357143 0.107143 0.0416667 55.845 6.26549e-07 
603 1 0.357143 0.0714286 0 55.845 -5.50237e-07 
541 1 0.321429 0 0.0416667 55.845 7.80348e-08 
542 1 0.321453 0.0357359 0.0845384 55.845 4.84975e-07 
543 1 0.357143 0.0357143 0.0416667 55.845 3.39215e-07 
544 1 0.357182 0.0714588 0.0845328 55.845 2.56354e-07 
602 1 0.321429 0.0357143 0 55.845 -3.78193e-07 
596 1 0.285714 0.0714286 0 55.845 7.58832e-08 
597 1 0.321429 0.107143 0 55.845 -3.97146e-07 
612 1 0.464286 0.0357143 0 55.845 -3.93001e-07 
611 1 0.428571 0 0 55.845 3.16976e-07 
610 1 0.464286 0.107143 0 55.845 2.03931e-07 
609 1 0.428571 0.0714286 0 55.845 -3.04793e-08 
608 1 0.392857 0.0357143 0 55.845 -2.9287e-07 
341 1 0.392858 0.0714066 0.210189 55.845 1.53865e-07 
343 1 0.428582 0.107188 0.210125 55.845 6.02099e-08 
348 1 0.392838 -6.37669e-05 0.210103 55.845 2.54412e-07 
350 1 0.428629 0.0356772 0.210136 55.845 -1.52519e-07 
352 1 0.464366 0.0714239 0.210165 55.845 -2.75804e-08 
355 1 0.464246 1.74889e-05 0.210147 55.845 -2.59478e-07 
443 1 0.392931 0.0714097 0.12663 55.845 2.35422e-07 
444 1 0.392904 0.107129 0.16826 55.845 2.09222e-07 
445 1 0.428543 0.107125 0.126506 55.845 4.89951e-07 
604 1 0.392857 0.107143 0 55.845 -2.15095e-07 
450 1 0.392914 3.43291e-05 0.126454 55.845 -1.60243e-07 
451 1 0.3928 0.0357186 0.168442 55.845 1.12572e-07 
452 1 0.428546 0.0358307 0.126633 55.845 8.11411e-08 
453 1 0.428657 0.0714775 0.168441 55.845 4.27937e-07 
454 1 0.464299 0.0714515 0.126493 55.845 3.5889e-07 
455 1 0.464309 0.107143 0.1684 55.845 2.45344e-07 
456 1 0.428525 4.6534e-06 0.168338 55.845 1.8944e-08 
457 1 0.464273 4.90459e-05 0.126539 55.845 3.09363e-07 
458 1 0.464267 0.035683 0.168274 55.845 3.04022e-07 
545 1 0.392857 0.0714286 0.0416667 55.845 7.70121e-08 
546 1 0.392855 0.107204 0.0845351 55.845 3.31208e-07 
547 1 0.428571 0.107143 0.0416667 55.845 1.67069e-07 
552 1 0.392857 0 0.0416667 55.845 5.37452e-07 
553 1 0.39288 0.035721 0.084511 55.845 -1.1326e-07 
554 1 0.428571 0.0357143 0.0416667 55.845 3.2866e-08 
555 1 0.428548 0.0713926 0.0842765 55.845 5.59403e-08 
556 1 0.464286 0.0714286 0.0416667 55.845 8.5873e-08 
557 1 0.464263 0.10712 0.0844977 55.845 -3.139e-07 
558 1 0.428546 6.31826e-05 0.0845522 55.845 1.15624e-07 
559 1 0.464286 0 0.0416667 55.845 2.51448e-07 
560 1 0.464217 0.0357692 0.0844979 55.845 1.89746e-07 
255 1 2.91193e-07 0.178583 0.210176 55.845 -1.19117e-07 
257 1 0.0357442 0.214303 0.210099 55.845 -4.40593e-08 
261 1 0.0357454 0.142942 0.210027 55.845 -2.55538e-07 
263 1 0.0714289 0.178657 0.210218 55.845 3.74021e-07 
265 1 0.107136 0.214219 0.209984 55.845 3.60971e-09 
273 1 0.107165 0.14288 0.210173 55.845 2.61874e-07 
357 1 1.69276e-05 0.178576 0.1265 55.845 -2.11737e-07 
358 1 -1.59937e-05 0.214316 0.168375 55.845 -1.75495e-07 
359 1 0.0357108 0.214279 0.126548 55.845 1.65555e-07 
360 1 0.0357394 0.250007 0.168201 55.845 -5.22989e-07 
362 1 5.40331e-05 0.142817 0.168275 55.845 2.86882e-07 
363 1 0.0357641 0.142862 0.12652 55.845 2.32999e-08 
364 1 0.0357751 0.178546 0.168323 55.845 -2.32767e-07 
365 1 0.0714592 0.17857 0.126556 55.845 -4.93155e-08 
366 1 0.0714287 0.214277 0.168216 55.845 -1.95719e-07 
367 1 0.107172 0.214317 0.126418 55.845 2.41468e-08 
368 1 0.107163 0.249982 0.168184 55.845 -4.83659e-07 
374 1 0.0714721 0.142852 0.168416 55.845 -7.76953e-08 
375 1 0.107136 0.142837 0.12642 55.845 1.50054e-07 
376 1 0.107165 0.178612 0.168343 55.845 -2.97521e-07 
459 1 0 0.178571 0.0416667 55.845 1.54436e-07 
460 1 -2.55516e-05 0.214308 0.0844657 55.845 -7.18957e-10 
461 1 0.0357143 0.214286 0.0416667 55.845 3.32995e-07 
462 1 0.0356194 0.249944 0.0844353 55.845 4.81995e-07 
464 1 3.29452e-05 0.142877 0.0844856 55.845 4.46722e-08 
465 1 0.0357143 0.142857 0.0416667 55.845 1.78351e-07 
466 1 0.0357029 0.178634 0.0844276 55.845 2.37232e-07 
467 1 0.0714286 0.178571 0.0416667 55.845 1.44064e-07 
468 1 0.0714281 0.214245 0.0844993 55.845 3.09924e-07 
469 1 0.107143 0.214286 0.0416667 55.845 8.91444e-08 
470 1 0.10714 0.250055 0.0844356 55.845 9.02158e-08 
476 1 0.0713927 0.142869 0.0844871 55.845 1.33544e-07 
477 1 0.107143 0.142857 0.0416667 55.845 4.43242e-07 
478 1 0.10717 0.178582 0.0844777 55.845 1.17959e-07 
561 1 0 0.214286 0 55.845 2.45645e-08 
562 1 0.0357143 0.25 0 55.845 -5.65558e-07 
563 1 0 0.142857 0 55.845 -4.87916e-07 
564 1 0.0357143 0.178571 0 55.845 -1.05592e-07 
565 1 0.0714286 0.214286 0 55.845 -7.02576e-07 
566 1 0.107143 0.25 0 55.845 -5.55196e-08 
569 1 0.0714286 0.142857 0 55.845 -4.93293e-07 
570 1 0.107143 0.178571 0 55.845 -1.88565e-07 
275 1 0.142893 0.178494 0.210128 55.845 5.14376e-07 
277 1 0.178559 0.21426 0.210169 55.845 1.98067e-07 
287 1 0.178614 0.142852 0.210244 55.845 3.89007e-07 
289 1 0.214323 0.178556 0.210211 55.845 1.34418e-07 
291 1 0.250012 0.21424 0.210096 55.845 -2.23235e-07 
301 1 0.250046 0.142785 0.210206 55.845 -1.58216e-07 
377 1 0.142893 0.178624 0.126507 55.845 -1.39588e-07 
378 1 0.142889 0.214291 0.168316 55.845 9.49884e-08 
379 1 0.178626 0.214311 0.126574 55.845 4.15114e-07 
388 1 0.142852 0.14286 0.168353 55.845 -4.41522e-07 
389 1 0.178572 0.142809 0.126616 55.845 -2.89429e-07 
390 1 0.178597 0.178508 0.16833 55.845 -9.19295e-09 
391 1 0.214273 0.178605 0.126538 55.845 3.8136e-08 
392 1 0.214278 0.214288 0.168282 55.845 1.59883e-08 
393 1 0.249937 0.214302 0.126558 55.845 1.3818e-07 
402 1 0.214317 0.142863 0.168241 55.845 -2.42755e-07 
403 1 0.249975 0.142849 0.126518 55.845 5.3114e-07 
404 1 0.249933 0.17858 0.168255 55.845 -4.26653e-07 
479 1 0.142857 0.178571 0.0416667 55.845 4.03929e-07 
480 1 0.142857 0.214317 0.0844438 55.845 -1.45985e-07 
481 1 0.178571 0.214286 0.0416667 55.845 -6.41945e-08 
490 1 0.142922 0.142888 0.0845567 55.845 3.73287e-07 
491 1 0.178571 0.142857 0.0416667 55.845 4.47399e-07 
492 1 0.178619 0.17852 0.0844849 55.845 5.25573e-08 
493 1 0.214286 0.178571 0.0416667 55.845 2.26109e-07 
494 1 0.21431 0.214285 0.0844617 55.845 1.90311e-07 
495 1 0.25 0.214286 0.0416667 55.845 -3.03408e-08 
504 1 0.214236 0.142821 0.0844509 55.845 -1.0457e-08 
505 1 0.25 0.142857 0.0416667 55.845 1.44091e-07 
506 1 0.249993 0.178604 0.0845168 55.845 -4.62513e-08 
571 1 0.142857 0.214286 0 55.845 -3.50413e-07 
576 1 0.142857 0.142857 0 55.845 -3.38781e-08 
577 1 0.178571 0.178571 0 55.845 -4.25235e-07 
578 1 0.214286 0.214286 0 55.845 -7.98384e-07 
583 1 0.214286 0.142857 0 55.845 6.3173e-08 
584 1 0.25 0.178571 0 55.845 -8.92328e-09 
303 1 0.285712 0.178557 0.210125 55.845 -2.11734e-07 
305 1 0.321431 0.214322 0.210172 55.845 3.47226e-07 
315 1 0.321446 0.142877 0.210204 55.845 2.32863e-07 
317 1 0.357128 0.178609 0.210101 55.845 2.92749e-07 
405 1 0.28575 0.178592 0.126485 55.845 1.22611e-07 
406 1 0.285675 0.214269 0.168243 55.845 -1.69363e-07 
407 1 0.321431 0.214237 0.126527 55.845 -3.75367e-07 
416 1 0.285737 0.142919 0.16823 55.845 1.17488e-07 
417 1 0.321527 0.142877 0.126633 55.845 3.6277e-07 
418 1 0.321429 0.178616 0.168439 55.845 -1.29006e-08 
419 1 0.357089 0.178555 0.126626 55.845 -4.68832e-07 
420 1 0.357164 0.214277 0.168296 55.845 -4.06682e-07 
432 1 0.357214 0.142856 0.168439 55.845 3.6755e-08 
507 1 0.285714 0.178571 0.0416667 55.845 5.29029e-07 
508 1 0.285696 0.214277 0.084502 55.845 3.18249e-07 
509 1 0.321429 0.214286 0.0416667 55.845 3.74654e-07 
518 1 0.285777 0.142839 0.0844821 55.845 3.49324e-07 
519 1 0.321429 0.142857 0.0416667 55.845 8.04352e-08 
520 1 0.321414 0.178553 0.0845137 55.845 2.35831e-07 
521 1 0.357143 0.178571 0.0416667 55.845 2.89974e-07 
522 1 0.357191 0.21428 0.0845052 55.845 -1.73544e-07 
534 1 0.357156 0.142874 0.0845278 55.845 2.83368e-07 
585 1 0.285714 0.214286 0 55.845 3.08368e-07 
590 1 0.285714 0.142857 0 55.845 -6.82286e-07 
591 1 0.321429 0.178571 0 55.845 7.6102e-09 
592 1 0.357143 0.214286 0 55.845 -3.18907e-07 
598 1 0.357143 0.142857 0 55.845 -2.16599e-07 
319 1 0.392817 0.214217 0.210135 55.845 3.88201e-07 
321 1 0.428527 0.250022 0.210091 55.845 -4.36611e-08 
331 1 0.392928 0.142849 0.210211 55.845 2.89552e-08 
333 1 0.428548 0.17857 0.209997 55.845 1.42269e-07 
335 1 0.464324 0.21431 0.210027 55.845 -1.16076e-07 
345 1 0.464237 0.142886 0.210109 55.845 1.40331e-07 
606 1 0.464286 0.178571 0 55.845 -7.90101e-08 
421 1 0.392836 0.214253 0.126561 55.845 -1.31584e-07 
422 1 0.392831 0.249977 0.168264 55.845 -3.73899e-07 
423 1 0.428552 0.250035 0.126552 55.845 3.59871e-07 
433 1 0.392836 0.142921 0.12656 55.845 1.01989e-07 
434 1 0.392879 0.178565 0.168351 55.845 -1.55967e-07 
435 1 0.428567 0.17861 0.126482 55.845 9.3836e-08 
436 1 0.428573 0.214335 0.168285 55.845 -3.4715e-08 
437 1 0.464292 0.214313 0.126466 55.845 2.66803e-07 
605 1 0.428571 0.142857 0 55.845 -1.98718e-07 
446 1 0.42851 0.142844 0.168163 55.845 4.84375e-08 
447 1 0.464291 0.142819 0.126502 55.845 3.09677e-07 
448 1 0.464245 0.178613 0.168305 55.845 -2.30052e-07 
523 1 0.392857 0.214286 0.0416667 55.845 4.69794e-07 
524 1 0.39293 0.25003 0.0844441 55.845 2.87809e-07 
525 1 0.428571 0.25 0.0416667 55.845 -7.00892e-08 
535 1 0.392857 0.142857 0.0416667 55.845 1.22845e-07 
536 1 0.392851 0.178557 0.0844194 55.845 1.53695e-07 
537 1 0.428571 0.178571 0.0416667 55.845 4.11662e-07 
538 1 0.428575 0.214307 0.0844225 55.845 4.6065e-07 
539 1 0.464286 0.214286 0.0416667 55.845 5.31178e-07 
548 1 0.428591 0.142847 0.0844467 55.845 -1.68457e-08 
549 1 0.464286 0.142857 0.0416667 55.845 3.34911e-08 
550 1 0.46429 0.178523 0.0844637 55.845 -1.5701e-07 
593 1 0.392857 0.25 0 55.845 -4.82305e-07 
599 1 0.392857 0.178571 0 55.845 -6.0435e-07 
600 1 0.428571 0.214286 0 55.845 -4.6672e-07 
3 1 1.91428e-06 0.107178 0.462528 55.845 -1.7551e-07 
7 1 -1.80647e-05 0.0357798 0.462386 55.845 -4.85496e-07 
8 1 0.035646 0.0713966 0.462497 55.845 8.81038e-08 
9 1 0.0714326 0.107129 0.462505 55.845 -2.53337e-07 
13 1 0.0356896 1.1868e-05 0.462525 55.845 -3.11245e-07 
14 1 0.0713488 0.0356898 0.46253 55.845 6.37168e-08 
15 1 0.107129 0.0713704 0.462443 55.845 -8.40432e-07 
20 1 0.10719 6.75656e-06 0.462456 55.845 -4.07601e-07 
55 1 4.16868e-05 0.107169 0.37823 55.845 -1.59049e-07 
63 1 -4.4137e-05 0.035701 0.378272 55.845 7.97803e-09 
64 1 6.71608e-06 0.0714767 0.420449 55.845 2.6551e-07 
65 1 0.0357265 0.0714087 0.378287 55.845 -6.56133e-07 
66 1 0.0357231 0.107142 0.42046 55.845 8.31997e-07 
67 1 0.0714947 0.107112 0.378353 55.845 -1.90412e-07 
74 1 -2.16556e-05 -1.7743e-05 0.420404 55.845 4.89996e-07 
75 1 0.0356777 -4.68002e-08 0.378312 55.845 -3.65295e-07 
76 1 0.0356425 0.0357506 0.420367 55.845 3.77831e-07 
77 1 0.0714072 0.0357252 0.378279 55.845 -3.96585e-07 
78 1 0.0713738 0.0714078 0.420487 55.845 3.30703e-07 
79 1 0.107167 0.071447 0.37835 55.845 -6.6765e-07 
80 1 0.107199 0.107095 0.420451 55.845 2.26356e-07 
88 1 0.0714046 1.63371e-05 0.420436 55.845 6.37268e-07 
89 1 0.107111 1.6621e-05 0.378339 55.845 -3.59365e-07 
90 1 0.107086 0.0357375 0.420465 55.845 5.12518e-07 
157 1 7.86066e-05 0.107193 0.293699 55.845 1.48204e-07 
165 1 1.18915e-05 0.0357023 0.293794 55.845 7.0756e-08 
166 1 -3.44205e-05 0.0714782 0.33597 55.845 -7.1503e-07 
167 1 0.0358198 0.0714715 0.293752 55.845 5.29737e-07 
168 1 0.0357694 0.107092 0.336019 55.845 -1.45411e-07 
169 1 0.0715147 0.10716 0.293776 55.845 3.31766e-08 
176 1 2.7743e-05 -7.77259e-05 0.336025 55.845 -4.02203e-07 
177 1 0.0357468 -3.45192e-06 0.293802 55.845 1.83852e-07 
178 1 0.0356575 0.0357885 0.335973 55.845 -5.85717e-07 
179 1 0.0714525 0.0356813 0.293811 55.845 7.18568e-07 
180 1 0.0714685 0.0714897 0.336062 55.845 -4.06312e-08 
181 1 0.107174 0.0713961 0.293757 55.845 1.59219e-07 
182 1 0.107162 0.107173 0.336053 55.845 -3.35354e-07 
190 1 0.0714547 2.87236e-05 0.336193 55.845 -4.76649e-07 
191 1 0.107161 -1.13693e-05 0.293702 55.845 3.88373e-07 
192 1 0.107114 0.0357257 0.336083 55.845 -2.36396e-07 
268 1 2.71206e-05 0.0714458 0.251907 55.845 -1.57974e-07 
270 1 0.0358057 0.107185 0.251705 55.845 -1.31369e-07 
278 1 -3.94562e-05 -2.62647e-05 0.251822 55.845 -6.60352e-07 
280 1 0.035722 0.0357053 0.251777 55.845 -5.44301e-07 
282 1 0.0714681 0.0714364 0.251666 55.845 2.29421e-07 
284 1 0.107129 0.107168 0.251657 55.845 -4.76154e-07 
292 1 0.0714271 -3.44577e-05 0.251692 55.845 -2.53822e-07 
294 1 0.10713 0.0357079 0.251743 55.845 -3.86593e-08 
16 1 0.142902 0.107126 0.462281 55.845 -6.72425e-07 
21 1 0.142817 0.0357297 0.462302 55.845 2.23215e-08 
22 1 0.178623 0.0713583 0.462353 55.845 -5.94429e-08 
23 1 0.21436 0.107073 0.462405 55.845 -3.26495e-07 
27 1 0.178552 -1.88362e-05 0.462399 55.845 -3.48631e-07 
28 1 0.214217 0.035744 0.462315 55.845 -5.5373e-07 
29 1 0.250012 0.0713787 0.462335 55.845 -3.86192e-07 
81 1 0.142874 0.10717 0.378199 55.845 3.99317e-07 
91 1 0.142809 0.0356854 0.378227 55.845 -7.15723e-07 
92 1 0.142898 0.071381 0.420426 55.845 2.83628e-07 
93 1 0.178564 0.071409 0.378285 55.845 -2.31974e-07 
94 1 0.178607 0.107111 0.420338 55.845 7.99469e-07 
95 1 0.214329 0.107143 0.378241 55.845 -2.46017e-07 
102 1 0.142841 -4.793e-05 0.420387 55.845 6.52236e-07 
103 1 0.178515 -5.51823e-05 0.378234 55.845 4.26049e-10 
104 1 0.178555 0.0357099 0.42032 55.845 9.94216e-08 
105 1 0.214271 0.0356519 0.378241 55.845 -3.71015e-07 
106 1 0.214263 0.071465 0.420332 55.845 7.91695e-08 
107 1 0.249991 0.0714705 0.378307 55.845 -1.23857e-07 
108 1 0.25005 0.107104 0.4205 55.845 1.09381e-06 
118 1 0.214287 -5.79531e-06 0.420453 55.845 6.63386e-07 
120 1 0.250006 0.0357346 0.420308 55.845 1.39025e-08 
183 1 0.142864 0.10705 0.29382 55.845 2.44356e-07 
193 1 0.14287 0.0356559 0.293822 55.845 4.27451e-07 
194 1 0.142867 0.0713874 0.336027 55.845 -2.37816e-07 
195 1 0.178597 0.0713989 0.293788 55.845 6.19549e-07 
196 1 0.17861 0.107081 0.335936 55.845 1.91584e-07 
197 1 0.214311 0.107115 0.293834 55.845 1.69352e-07 
204 1 0.142809 -4.93483e-05 0.336016 55.845 -3.99896e-07 
205 1 0.178601 7.71757e-06 0.293833 55.845 4.35018e-07 
206 1 0.178598 0.035624 0.336034 55.845 -3.57905e-07 
207 1 0.214364 0.0357345 0.293809 55.845 7.28474e-07 
208 1 0.21433 0.0713529 0.336054 55.845 -2.63271e-07 
209 1 0.250024 0.0714508 0.29389 55.845 6.58231e-08 
210 1 0.250045 0.107143 0.336021 55.845 -5.99888e-07 
220 1 0.214265 -1.67742e-05 0.336049 55.845 -1.34311e-07 
222 1 0.250016 0.0357373 0.336103 55.845 -5.7767e-08 
296 1 0.142902 0.0713935 0.251677 55.845 -3.28097e-07 
298 1 0.17858 0.107132 0.251691 55.845 -2.62033e-07 
306 1 0.142912 9.58081e-05 0.251785 55.845 2.9532e-07 
308 1 0.178589 0.0356939 0.251745 55.845 -5.09393e-07 
310 1 0.214325 0.0713789 0.251786 55.845 -4.81374e-07 
312 1 0.250025 0.107125 0.251771 55.845 -1.98204e-07 
322 1 0.214249 9.34376e-06 0.251802 55.845 -2.77461e-07 
324 1 0.250011 0.035675 0.251869 55.845 -1.37018e-07 
30 1 0.28577 0.107113 0.462443 55.845 1.14562e-07 
35 1 0.250028 1.83048e-05 0.462419 55.845 -4.25865e-07 
36 1 0.285682 0.0357316 0.462397 55.845 -6.71644e-07 
37 1 0.321447 0.0713595 0.462381 55.845 -3.95882e-07 
38 1 0.357173 0.107084 0.462456 55.845 -2.80345e-07 
42 1 0.321476 1.9882e-05 0.462391 55.845 -6.21845e-08 
43 1 0.357175 0.035644 0.462474 55.845 2.883e-07 
109 1 0.285762 0.107088 0.378332 55.845 -1.70431e-07 
119 1 0.250084 1.09552e-05 0.378276 55.845 1.90142e-07 
121 1 0.285778 0.0356526 0.378333 55.845 -5.8865e-07 
122 1 0.285732 0.0713538 0.420509 55.845 6.41718e-07 
123 1 0.321464 0.0713445 0.378184 55.845 -1.67259e-07 
124 1 0.321473 0.107027 0.420383 55.845 9.95347e-07 
125 1 0.357258 0.107077 0.378282 55.845 -3.80635e-08 
133 1 0.321496 -2.02829e-05 0.378187 55.845 -3.39008e-07 
134 1 0.321466 0.0356765 0.420339 55.845 4.30429e-07 
135 1 0.357125 0.0357334 0.378244 55.845 -3.61445e-07 
136 1 0.357162 0.0714174 0.420452 55.845 4.38059e-07 
211 1 0.285758 0.107084 0.293947 55.845 2.1775e-07 
221 1 0.25003 -2.34626e-05 0.29377 55.845 6.50612e-07 
223 1 0.285671 0.0357157 0.293846 55.845 3.87785e-07 
224 1 0.285762 0.0713849 0.336108 55.845 -5.59156e-07 
225 1 0.321401 0.0714762 0.293768 55.845 1.80884e-07 
226 1 0.321539 0.107118 0.336039 55.845 -1.80029e-07 
227 1 0.357139 0.10719 0.293752 55.845 2.79181e-07 
235 1 0.321441 -3.99622e-05 0.293746 55.845 -1.76682e-07 
236 1 0.321428 0.0356896 0.335903 55.845 -9.577e-07 
237 1 0.357183 0.0357028 0.29367 55.845 4.04235e-07 
238 1 0.357166 0.0714126 0.335964 55.845 -4.40545e-07 
326 1 0.285737 0.0714463 0.251614 55.845 1.79062e-07 
328 1 0.321444 0.107147 0.251672 55.845 4.22287e-07 
338 1 0.321457 0.0357236 0.251672 55.845 -1.0378e-07 
340 1 0.35711 0.0714389 0.251691 55.845 -1.33638e-07 
44 1 0.392886 0.0713764 0.462561 55.845 -2.15799e-08 
45 1 0.428556 0.107217 0.462437 55.845 3.65865e-07 
47 1 0.392913 -4.56882e-05 0.462493 55.845 -5.16906e-07 
48 1 0.428596 0.0356783 0.462488 55.845 -4.94915e-07 
49 1 0.464322 0.07143 0.462419 55.845 -2.12519e-07 
50 1 0.464277 -2.02045e-05 0.462557 55.845 -7.76771e-07 
137 1 0.392926 0.0714192 0.378199 55.845 -4.74305e-07 
138 1 0.392915 0.107139 0.420456 55.845 5.64455e-07 
139 1 0.428612 0.107157 0.378168 55.845 -4.71041e-07 
144 1 0.392883 1.46695e-05 0.378338 55.845 -5.19622e-07 
145 1 0.392849 0.0357087 0.420485 55.845 2.99317e-07 
146 1 0.428619 0.0356951 0.378189 55.845 -2.56563e-07 
147 1 0.428535 0.0714796 0.420547 55.845 7.28017e-07 
148 1 0.464312 0.0714011 0.378339 55.845 -2.6996e-07 
149 1 0.464323 0.107119 0.420429 55.845 8.77212e-07 
150 1 0.428658 5.89536e-05 0.420409 55.845 -1.5636e-07 
151 1 0.464316 -4.88854e-05 0.378212 55.845 -2.50496e-08 
152 1 0.464271 0.0355982 0.420369 55.845 1.21551e-07 
239 1 0.392846 0.0713853 0.293789 55.845 4.86799e-07 
240 1 0.392885 0.107149 0.336037 55.845 -6.10036e-07 
241 1 0.428633 0.107091 0.293721 55.845 5.0892e-07 
246 1 0.392882 -6.14121e-05 0.293701 55.845 7.19109e-08 
247 1 0.392922 0.0356758 0.335992 55.845 2.02043e-07 
248 1 0.428627 0.0357264 0.293748 55.845 4.29325e-07 
249 1 0.428654 0.0714449 0.336036 55.845 -3.03713e-07 
250 1 0.464317 0.0714096 0.293875 55.845 2.66472e-07 
251 1 0.464319 0.107145 0.335988 55.845 -1.34253e-07 
252 1 0.428547 5.22845e-05 0.335981 55.845 1.65186e-09 
253 1 0.464295 4.04441e-06 0.293726 55.845 1.69772e-07 
254 1 0.464337 0.0356654 0.336086 55.845 4.74433e-08 
342 1 0.392769 0.107105 0.251812 55.845 -3.06074e-08 
349 1 0.392918 0.0356421 0.251654 55.845 3.12175e-07 
351 1 0.428614 0.071434 0.2517 55.845 -1.38098e-07 
353 1 0.464325 0.107099 0.25175 55.845 -3.69862e-07 
354 1 0.42856 -2.68304e-06 0.251785 55.845 -4.56997e-07 
356 1 0.464373 0.0356974 0.251738 55.845 -7.39809e-07 
1 1 -2.865e-05 0.178602 0.462521 55.845 -5.0873e-07 
2 1 0.0357773 0.214239 0.462398 55.845 -9.44171e-08 
4 1 0.035781 0.14289 0.462513 55.845 -4.32287e-07 
5 1 0.0714372 0.178587 0.4623 55.845 -6.21658e-08 
6 1 0.107193 0.21426 0.462413 55.845 -4.83233e-08 
10 1 0.107179 0.142909 0.462443 55.845 -1.54102e-07 
51 1 2.22355e-05 0.178586 0.378203 55.845 1.42469e-07 
52 1 4.3595e-05 0.214248 0.420392 55.845 2.58596e-07 
53 1 0.0358201 0.214344 0.378236 55.845 -5.79509e-07 
54 1 0.0357109 0.249981 0.420401 55.845 1.69219e-07 
56 1 3.87914e-05 0.142861 0.420377 55.845 4.88204e-07 
57 1 0.0357684 0.142883 0.378277 55.845 4.30365e-07 
58 1 0.035737 0.17862 0.420442 55.845 5.77687e-07 
59 1 0.071497 0.178567 0.378241 55.845 -5.49565e-07 
60 1 0.0715394 0.214301 0.420389 55.845 6.26598e-07 
61 1 0.107187 0.214266 0.37834 55.845 -2.55679e-07 
62 1 0.107143 0.250014 0.420398 55.845 4.40176e-07 
68 1 0.0714353 0.142842 0.420441 55.845 1.06982e-06 
69 1 0.107201 0.142816 0.378443 55.845 -2.48737e-07 
70 1 0.107262 0.178599 0.420338 55.845 1.03939e-06 
153 1 1.93061e-05 0.178504 0.29379 55.845 6.12064e-07 
154 1 2.4219e-05 0.214293 0.336056 55.845 -3.87642e-07 
155 1 0.0357456 0.21425 0.293746 55.845 2.93901e-07 
156 1 0.0357497 0.250017 0.336128 55.845 -4.9267e-07 
158 1 2.31258e-05 0.142921 0.33607 55.845 4.47353e-07 
159 1 0.0357701 0.142846 0.293885 55.845 2.0138e-07 
160 1 0.035741 0.178635 0.336032 55.845 -1.47569e-07 
161 1 0.0714474 0.178633 0.293808 55.845 1.27827e-07 
162 1 0.0715105 0.214355 0.336104 55.845 -8.38721e-07 
163 1 0.107139 0.214322 0.293849 55.845 2.28396e-07 
164 1 0.107174 0.24999 0.336051 55.845 -4.79531e-08 
170 1 0.0715337 0.142875 0.33613 55.845 -3.15603e-07 
171 1 0.107213 0.142855 0.293794 55.845 6.23154e-08 
172 1 0.107146 0.178512 0.33597 55.845 -9.79617e-07 
256 1 -1.40891e-05 0.214327 0.251755 55.845 -1.72209e-07 
258 1 0.0356902 0.249984 0.251838 55.845 -1.80974e-07 
260 1 3.72408e-05 0.142869 0.251731 55.845 -5.38511e-07 
262 1 0.0357053 0.178613 0.251671 55.845 -1.8147e-07 
264 1 0.0714928 0.214369 0.251723 55.845 1.87715e-07 
266 1 0.107233 0.250004 0.25174 55.845 5.64687e-09 
272 1 0.0714825 0.142914 0.251752 55.845 -3.97688e-08 
274 1 0.107172 0.178606 0.25167 55.845 -4.97646e-08 
11 1 0.142966 0.178569 0.462356 55.845 2.88308e-07 
12 1 0.178606 0.214216 0.4624 55.845 3.55765e-08 
17 1 0.178603 0.142757 0.462443 55.845 -9.81051e-07 
18 1 0.214305 0.178539 0.462376 55.845 -5.01548e-07 
19 1 0.250057 0.214267 0.462349 55.845 -3.34495e-07 
24 1 0.250121 0.1428 0.462576 55.845 1.94768e-07 
71 1 0.142862 0.178513 0.378216 55.845 -6.20247e-07 
72 1 0.142905 0.214279 0.420382 55.845 1.10826e-06 
73 1 0.178585 0.214237 0.37823 55.845 -3.81956e-07 
82 1 0.142983 0.142906 0.42052 55.845 8.43873e-07 
83 1 0.17861 0.14284 0.378272 55.845 -1.81166e-07 
84 1 0.178603 0.178577 0.420444 55.845 2.78909e-07 
85 1 0.214321 0.178494 0.378323 55.845 -4.88543e-07 
86 1 0.214313 0.214274 0.420482 55.845 7.85997e-10 
87 1 0.249978 0.214309 0.37834 55.845 -4.60948e-07 
96 1 0.214261 0.142854 0.420501 55.845 2.58975e-07 
97 1 0.250067 0.142826 0.378281 55.845 -4.43476e-07 
98 1 0.249975 0.178502 0.420475 55.845 3.76669e-07 
173 1 0.1428 0.178507 0.293754 55.845 -1.63539e-07 
174 1 0.142878 0.214211 0.336025 55.845 -6.21598e-07 
175 1 0.178568 0.214238 0.293761 55.845 4.50731e-07 
184 1 0.142846 0.142831 0.336047 55.845 2.98294e-08 
185 1 0.178591 0.142798 0.293836 55.845 4.01566e-07 
186 1 0.178518 0.17851 0.336159 55.845 -4.483e-07 
187 1 0.214263 0.178565 0.293856 55.845 5.92863e-07 
188 1 0.214313 0.214211 0.336034 55.845 -2.33764e-07 
189 1 0.250025 0.214259 0.293702 55.845 1.16645e-07 
198 1 0.214369 0.142858 0.336085 55.845 -2.71151e-07 
199 1 0.250009 0.14281 0.29374 55.845 5.52164e-07 
200 1 0.250042 0.178608 0.336058 55.845 1.50102e-08 
276 1 0.142858 0.214276 0.251772 55.845 -8.42281e-08 
286 1 0.142889 0.142807 0.251798 55.845 7.67624e-08 
288 1 0.178618 0.178533 0.251795 55.845 2.04588e-07 
290 1 0.21428 0.214352 0.251815 55.845 -5.19353e-07 
300 1 0.214339 0.142818 0.251773 55.845 -1.74397e-08 
302 1 0.249944 0.178598 0.251812 55.845 -3.36941e-07 
25 1 0.285768 0.178519 0.462446 55.845 -4.40049e-07 
26 1 0.321471 0.214345 0.462443 55.845 -4.50349e-08 
31 1 0.321423 0.142826 0.462407 55.845 -4.79734e-07 
32 1 0.357189 0.178588 0.462401 55.845 -7.42958e-08 
99 1 0.285719 0.178566 0.378298 55.845 -5.07395e-07 
100 1 0.285701 0.214302 0.420454 55.845 9.72959e-07 
101 1 0.321458 0.214302 0.378291 55.845 -3.45836e-07 
110 1 0.285737 0.14281 0.420383 55.845 3.84622e-07 
111 1 0.321519 0.142829 0.378299 55.845 -5.66101e-07 
112 1 0.321471 0.178584 0.420418 55.845 3.77474e-07 
113 1 0.35715 0.178621 0.378314 55.845 -3.83509e-07 
114 1 0.357156 0.214316 0.420373 55.845 -5.82771e-09 
126 1 0.357219 0.142817 0.420477 55.845 1.17222e-06 
201 1 0.285675 0.178557 0.293755 55.845 7.51672e-07 
202 1 0.285637 0.21429 0.336084 55.845 -1.24342e-07 
203 1 0.321413 0.214242 0.293852 55.845 4.16553e-07 
212 1 0.285755 0.142827 0.33606 55.845 -5.56288e-07 
213 1 0.321464 0.142826 0.2937 55.845 3.87489e-07 
214 1 0.321412 0.178576 0.336073 55.845 -2.43031e-07 
215 1 0.357171 0.178526 0.293853 55.845 2.23962e-07 