ITEM: TIMESTEP
8000
ITEM: NUMBER OF ATOMS
5880
ITEM: BOX BOUNDS pp pp ff
-28.0072 28.0072
-28.0072 28.0072
0 34.092
ITEM: ATOMS id type xs ys zs mass q 
259 1 0.000139556 0.107085 0.20898 55.845 -4.88286e-07 
267 1 -3.83408e-05 0.0358059 0.209259 55.845 -4.78153e-07 
269 1 0.0357122 0.0714442 0.209058 55.845 -4.57343e-07 
271 1 0.0715068 0.107088 0.209075 55.845 -5.3953e-07 
279 1 0.0357694 5.1713e-06 0.209291 55.845 -4.79219e-07 
281 1 0.0714415 0.0357774 0.20938 55.845 -3.79981e-07 
283 1 0.107153 0.0712762 0.209248 55.845 -4.4644e-07 
293 1 0.107161 -0.000123228 0.20932 55.845 -3.82557e-07 
361 1 -2.7623e-05 0.107095 0.124959 55.845 1.27602e-07 
369 1 -4.51428e-05 0.0356793 0.125014 55.845 2.79864e-07 
370 1 1.66248e-05 0.0714156 0.166299 55.845 2.3441e-07 
371 1 0.0357756 0.0714397 0.124888 55.845 2.01039e-07 
372 1 0.0356543 0.107073 0.16641 55.845 2.44517e-07 
373 1 0.0714527 0.107071 0.125081 55.845 2.15834e-07 
380 1 -8.68863e-06 6.89477e-05 0.166465 55.845 1.69623e-07 
381 1 0.0356695 -1.41672e-05 0.125365 55.845 4.17548e-07 
382 1 0.0357815 0.0357237 0.166379 55.845 8.80594e-08 
383 1 0.0713882 0.0356898 0.125082 55.845 3.75123e-07 
384 1 0.0714748 0.0713924 0.16654 55.845 1.61218e-07 
385 1 0.107211 0.0713617 0.125284 55.845 2.95845e-07 
386 1 0.107076 0.107065 0.166626 55.845 1.67463e-07 
394 1 0.0714813 9.8967e-05 0.166794 55.845 -1.73005e-08 
395 1 0.107023 2.45637e-05 0.125112 55.845 3.41279e-07 
396 1 0.107279 0.0356685 0.166794 55.845 3.85053e-08 
463 1 0 0.107143 0.0416667 55.845 5.48594e-07 
471 1 0 0.0357143 0.0416667 55.845 5.7207e-07 
472 1 -6.31396e-05 0.0714244 0.0828922 55.845 -6.5567e-07 
473 1 0.0357143 0.0714286 0.0416667 55.845 5.28891e-07 
474 1 0.0358198 0.107295 0.0830049 55.845 -7.17575e-07 
475 1 0.0714286 0.107143 0.0416667 55.845 3.95983e-07 
482 1 -1.84508e-05 -5.25989e-06 0.0830143 55.845 -5.64643e-07 
483 1 0.0357143 0 0.0416667 55.845 4.50261e-07 
484 1 0.035809 0.0356507 0.083086 55.845 -6.87459e-07 
485 1 0.0714286 0.0357143 0.0416667 55.845 4.80476e-07 
486 1 0.071524 0.0714597 0.0829104 55.845 -5.96919e-07 
487 1 0.107143 0.0714286 0.0416667 55.845 4.62736e-07 
488 1 0.10715 0.107116 0.0830461 55.845 -6.18645e-07 
496 1 0.0713686 5.37518e-06 0.0832557 55.845 -6.85851e-07 
497 1 0.107143 0 0.0416667 55.845 5.2726e-07 
498 1 0.107187 0.0357556 0.0830438 55.845 -7.60114e-07 
567 1 0 0.0714286 0 55.845 5.62971e-08 
568 1 0.0357143 0.107143 0 55.845 5.80877e-08 
572 1 0 0 0 55.845 -9.67903e-08 
573 1 0.0357143 0.0357143 0 55.845 -9.16145e-08 
574 1 0.0714286 0.0714286 0 55.845 3.42412e-08 
575 1 0.107143 0.107143 0 55.845 -2.89676e-08 
579 1 0.0714286 0 0 55.845 5.49402e-08 
580 1 0.107143 0.0357143 0 55.845 5.44281e-09 
285 1 0.142849 0.10709 0.209115 55.845 -4.99708e-07 
295 1 0.142866 0.035757 0.209161 55.845 -3.92456e-07 
297 1 0.178684 0.0714371 0.209071 55.845 -4.47816e-07 
299 1 0.214128 0.107151 0.209197 55.845 -4.47426e-07 
307 1 0.178697 2.25734e-06 0.20902 55.845 -4.5184e-07 
309 1 0.214321 0.0357741 0.209175 55.845 -4.27598e-07 
311 1 0.249976 0.0714581 0.209119 55.845 -3.85065e-07 
387 1 0.142687 0.107199 0.125213 55.845 4.01942e-07 
397 1 0.142806 0.0357239 0.125076 55.845 3.11736e-07 
398 1 0.142814 0.0713205 0.166555 55.845 -2.54614e-08 
399 1 0.178627 0.0713463 0.125259 55.845 2.96834e-07 
400 1 0.178596 0.10714 0.166567 55.845 -4.67939e-08 
401 1 0.214276 0.107197 0.125146 55.845 3.94434e-07 
408 1 0.142912 7.00264e-05 0.166525 55.845 7.8095e-08 
409 1 0.178549 -5.61523e-06 0.125032 55.845 1.18054e-07 
410 1 0.178582 0.0357052 0.166442 55.845 8.27078e-08 
411 1 0.2143 0.0357662 0.124887 55.845 1.66284e-07 
412 1 0.214336 0.0713878 0.166429 55.845 6.88534e-08 
413 1 0.250112 0.0715212 0.125135 55.845 3.30227e-07 
414 1 0.249928 0.107149 0.166695 55.845 1.49859e-07 
424 1 0.214181 5.94234e-05 0.166466 55.845 2.55309e-07 
426 1 0.250059 0.0358005 0.166633 55.845 1.69752e-07 
489 1 0.142857 0.107143 0.0416667 55.845 4.45262e-07 
499 1 0.142857 0.0357143 0.0416667 55.845 4.90835e-07 
500 1 0.14288 0.0713361 0.0830404 55.845 -6.50479e-07 
501 1 0.178571 0.0714286 0.0416667 55.845 3.6138e-07 
502 1 0.178483 0.107131 0.0830394 55.845 -6.2094e-07 
503 1 0.214286 0.107143 0.0416667 55.845 5.16273e-07 
510 1 0.142796 5.36494e-05 0.083094 55.845 -7.23479e-07 
511 1 0.178571 0 0.0416667 55.845 4.4367e-07 
512 1 0.1786 0.0356588 0.0830545 55.845 -7.17205e-07 
513 1 0.214286 0.0357143 0.0416667 55.845 4.13626e-07 
514 1 0.214306 0.0715405 0.0830195 55.845 -5.95675e-07 
515 1 0.25 0.0714286 0.0416667 55.845 4.70509e-07 
516 1 0.249956 0.107118 0.0830289 55.845 -6.22801e-07 
526 1 0.214317 -3.86751e-05 0.0829843 55.845 -7.34819e-07 
528 1 0.250172 0.0358077 0.0831607 55.845 -6.56421e-07 
581 1 0.142857 0.0714286 0 55.845 1.3419e-08 
582 1 0.178571 0.107143 0 55.845 -8.67976e-08 
586 1 0.142857 0 0 55.845 1.60381e-07 
587 1 0.178571 0.0357143 0 55.845 1.22774e-07 
588 1 0.214286 0.0714286 0 55.845 2.3146e-08 
589 1 0.25 0.107143 0 55.845 -7.58995e-08 
594 1 0.214286 0 0 55.845 1.90979e-07 
595 1 0.25 0.0357143 0 55.845 8.42691e-08 
313 1 0.285691 0.107089 0.209336 55.845 -4.85335e-07 
323 1 0.250018 -1.764e-05 0.209089 55.845 -3.78772e-07 
325 1 0.28579 0.0357052 0.209063 55.845 -4.18319e-07 
327 1 0.321349 0.0713561 0.20914 55.845 -4.0772e-07 
329 1 0.357031 0.10705 0.209016 55.845 -3.26082e-07 
337 1 0.321421 -3.20886e-05 0.209145 55.845 -4.52698e-07 
339 1 0.357146 0.035616 0.209122 55.845 -3.66129e-07 
415 1 0.285687 0.107165 0.12522 55.845 3.33499e-07 
425 1 0.249936 2.42038e-05 0.125144 55.845 1.1525e-07 
427 1 0.285689 0.0357841 0.125158 55.845 2.58686e-07 
428 1 0.285675 0.0714232 0.166564 55.845 1.18137e-07 
429 1 0.321412 0.0714754 0.125042 55.845 2.74148e-07 
430 1 0.321383 0.107132 0.166625 55.845 1.24839e-07 
431 1 0.357032 0.107172 0.125093 55.845 3.39758e-07 
439 1 0.321467 4.94962e-05 0.125001 55.845 2.73951e-07 
440 1 0.321455 0.0356934 0.166496 55.845 1.3551e-07 
441 1 0.357169 0.0356999 0.125063 55.845 3.46749e-07 
442 1 0.35714 0.0713888 0.166319 55.845 -2.26118e-08 
517 1 0.285714 0.107143 0.0416667 55.845 5.62892e-07 
527 1 0.25 0 0.0416667 55.845 4.67e-07 
529 1 0.285714 0.0357143 0.0416667 55.845 4.77018e-07 
530 1 0.285704 0.0714109 0.0829376 55.845 -6.80904e-07 
531 1 0.321429 0.0714286 0.0416667 55.845 4.34943e-07 
532 1 0.321412 0.107179 0.0829773 55.845 -6.014e-07 
533 1 0.357143 0.107143 0.0416667 55.845 4.33717e-07 
603 1 0.357143 0.0714286 0 55.845 9.98619e-08 
541 1 0.321429 0 0.0416667 55.845 4.71487e-07 
542 1 0.321423 0.0357346 0.083028 55.845 -6.14931e-07 
543 1 0.357143 0.0357143 0.0416667 55.845 4.41243e-07 
544 1 0.357127 0.0714705 0.0829818 55.845 -6.3692e-07 
602 1 0.321429 0.0357143 0 55.845 2.89576e-08 
596 1 0.285714 0.0714286 0 55.845 3.51408e-09 
597 1 0.321429 0.107143 0 55.845 -2.16286e-08 
612 1 0.464286 0.0357143 0 55.845 -3.63054e-08 
611 1 0.428571 0 0 55.845 -1.46164e-07 
610 1 0.464286 0.107143 0 55.845 1.61689e-07 
609 1 0.428571 0.0714286 0 55.845 4.76604e-08 
608 1 0.392857 0.0357143 0 55.845 9.01551e-08 
341 1 0.392805 0.0714611 0.209199 55.845 -3.23873e-07 
343 1 0.428533 0.10703 0.209023 55.845 -2.27244e-07 
348 1 0.392842 3.58791e-05 0.209236 55.845 -5.07714e-07 
350 1 0.428522 0.0357824 0.208952 55.845 -4.06456e-07 
352 1 0.464317 0.0714003 0.208936 55.845 -3.6805e-07 
355 1 0.464161 2.76037e-05 0.209114 55.845 -4.53449e-07 
443 1 0.392789 0.0713977 0.125045 55.845 5.1218e-07 
444 1 0.392765 0.107112 0.166375 55.845 -4.63365e-08 
445 1 0.428537 0.107111 0.125037 55.845 2.88444e-07 
604 1 0.392857 0.107143 0 55.845 2.21146e-07 
450 1 0.392829 -4.36733e-05 0.124985 55.845 4.577e-07 
451 1 0.392836 0.0357446 0.166412 55.845 1.10045e-07 
452 1 0.428483 0.0356002 0.125101 55.845 3.70429e-07 
453 1 0.428477 0.0714569 0.166314 55.845 3.14174e-08 
454 1 0.464321 0.0713982 0.125116 55.845 2.32433e-07 
455 1 0.464203 0.107162 0.166457 55.845 7.73379e-08 
456 1 0.428492 1.72104e-05 0.166488 55.845 9.49754e-08 
457 1 0.464216 -2.71583e-05 0.125036 55.845 4.53956e-07 
458 1 0.464225 0.0356984 0.16635 55.845 7.83356e-08 
545 1 0.392857 0.0714286 0.0416667 55.845 4.58847e-07 
546 1 0.392887 0.107152 0.083096 55.845 -6.82779e-07 
547 1 0.428571 0.107143 0.0416667 55.845 4.30356e-07 
552 1 0.392857 0 0.0416667 55.845 4.10139e-07 
553 1 0.392871 0.0356829 0.0829282 55.845 -6.03062e-07 
554 1 0.428571 0.0357143 0.0416667 55.845 4.11142e-07 
555 1 0.428582 0.0713848 0.0830975 55.845 -5.64934e-07 
556 1 0.464286 0.0714286 0.0416667 55.845 4.61208e-07 
557 1 0.464247 0.107078 0.0829188 55.845 -6.47082e-07 
558 1 0.42866 -2.35037e-05 0.0829297 55.845 -4.34036e-07 
559 1 0.464286 0 0.0416667 55.845 4.21671e-07 
560 1 0.464308 0.0356872 0.0828805 55.845 -5.51997e-07 
255 1 4.45575e-05 0.178435 0.20919 55.845 -2.87178e-07 
257 1 0.0357946 0.214215 0.209085 55.845 -3.95081e-07 
261 1 0.0358093 0.142753 0.209081 55.845 -4.97609e-07 
263 1 0.0715249 0.178535 0.209027 55.845 -5.10737e-07 
265 1 0.107135 0.214223 0.209279 55.845 -5.74787e-07 
273 1 0.107186 0.142892 0.20915 55.845 -5.61023e-07 
357 1 -9.73752e-05 0.178447 0.125202 55.845 1.20959e-07 
358 1 -3.20299e-05 0.214184 0.166588 55.845 7.28242e-08 
359 1 0.0357887 0.214226 0.125013 55.845 1.74571e-07 
360 1 0.0358447 0.249955 0.166507 55.845 1.09251e-07 
362 1 1.4787e-05 0.142812 0.166371 55.845 1.43902e-07 
363 1 0.0357148 0.142915 0.125151 55.845 1.59568e-07 
364 1 0.0357629 0.178534 0.166784 55.845 1.30027e-07 
365 1 0.0713233 0.178634 0.125096 55.845 2.3165e-07 
366 1 0.0715396 0.214301 0.16654 55.845 2.08888e-07 
367 1 0.107055 0.21425 0.125123 55.845 2.80657e-07 
368 1 0.107175 0.249829 0.166389 55.845 1.66029e-07 
374 1 0.0713722 0.142755 0.166382 55.845 2.21641e-07 
375 1 0.107143 0.142852 0.125259 55.845 3.76271e-07 
376 1 0.107205 0.178644 0.166657 55.845 2.4623e-07 
459 1 0 0.178571 0.0416667 55.845 4.86849e-07 
460 1 -1.08202e-05 0.214278 0.0830899 55.845 -7.30681e-07 
461 1 0.0357143 0.214286 0.0416667 55.845 5.3603e-07 
462 1 0.0357171 0.250033 0.0831131 55.845 -7.06348e-07 
464 1 -2.40879e-05 0.142808 0.0829495 55.845 -7.0478e-07 
465 1 0.0357143 0.142857 0.0416667 55.845 5.04306e-07 
466 1 0.0355643 0.178424 0.083219 55.845 -7.4335e-07 
467 1 0.0714286 0.178571 0.0416667 55.845 4.4757e-07 
468 1 0.0715164 0.214304 0.0831171 55.845 -5.88308e-07 
469 1 0.107143 0.214286 0.0416667 55.845 3.93942e-07 
470 1 0.107144 0.250026 0.0829747 55.845 -5.49864e-07 
476 1 0.0714109 0.142864 0.0830708 55.845 -6.09835e-07 
477 1 0.107143 0.142857 0.0416667 55.845 4.59717e-07 
478 1 0.107111 0.178578 0.0830936 55.845 -5.05661e-07 
561 1 0 0.214286 0 55.845 2.10734e-07 
562 1 0.0357143 0.25 0 55.845 8.76839e-08 
563 1 0 0.142857 0 55.845 1.8112e-07 
564 1 0.0357143 0.178571 0 55.845 1.46429e-07 
565 1 0.0714286 0.214286 0 55.845 6.94979e-08 
566 1 0.107143 0.25 0 55.845 -5.51951e-08 
569 1 0.0714286 0.142857 0 55.845 7.6262e-08 
570 1 0.107143 0.178571 0 55.845 -6.47514e-08 
275 1 0.142924 0.178497 0.209223 55.845 -5.54624e-07 
277 1 0.178553 0.21421 0.209015 55.845 -5.62946e-07 
287 1 0.178521 0.142715 0.209137 55.845 -5.49563e-07 
289 1 0.214223 0.178522 0.209109 55.845 -5.88801e-07 
291 1 0.249985 0.214319 0.208983 55.845 -6.48597e-07 
301 1 0.250048 0.142794 0.209087 55.845 -5.54503e-07 
377 1 0.142841 0.178613 0.125024 55.845 4.34748e-07 
378 1 0.142758 0.214271 0.166529 55.845 2.16298e-07 
379 1 0.17855 0.214436 0.125061 55.845 4.28864e-07 
388 1 0.14292 0.142841 0.166471 55.845 8.75059e-08 
389 1 0.178593 0.142799 0.125044 55.845 3.9964e-07 
390 1 0.178564 0.178545 0.166608 55.845 1.00189e-07 
391 1 0.214197 0.178492 0.125011 55.845 4.14417e-07 
392 1 0.214238 0.214268 0.166284 55.845 1.82852e-07 
393 1 0.250009 0.214168 0.125149 55.845 4.38567e-07 
402 1 0.214158 0.142918 0.166507 55.845 5.32964e-08 
403 1 0.249874 0.142793 0.125085 55.845 4.51654e-07 
404 1 0.249862 0.178578 0.166481 55.845 1.65181e-07 
479 1 0.142857 0.178571 0.0416667 55.845 4.39923e-07 
480 1 0.142792 0.214383 0.0830445 55.845 -4.98583e-07 
481 1 0.178571 0.214286 0.0416667 55.845 3.84327e-07 
490 1 0.142786 0.142841 0.0830226 55.845 -6.13734e-07 
491 1 0.178571 0.142857 0.0416667 55.845 4.82748e-07 
492 1 0.178629 0.178597 0.0831051 55.845 -4.6463e-07 
493 1 0.214286 0.178571 0.0416667 55.845 4.94051e-07 
494 1 0.214339 0.214251 0.0828312 55.845 -4.11966e-07 
495 1 0.25 0.214286 0.0416667 55.845 4.78766e-07 
504 1 0.214295 0.14284 0.082874 55.845 -5.43144e-07 
505 1 0.25 0.142857 0.0416667 55.845 5.76952e-07 
506 1 0.249975 0.178612 0.0830471 55.845 -5.22593e-07 
571 1 0.142857 0.214286 0 55.845 -1.72432e-07 
576 1 0.142857 0.142857 0 55.845 -1.34437e-07 
577 1 0.178571 0.178571 0 55.845 -2.63311e-07 
578 1 0.214286 0.214286 0 55.845 -1.83063e-07 
583 1 0.214286 0.142857 0 55.845 -1.99044e-07 
584 1 0.25 0.178571 0 55.845 -1.63546e-07 
303 1 0.285769 0.178633 0.209067 55.845 -5.60616e-07 
305 1 0.32149 0.214286 0.209108 55.845 -4.2245e-07 
315 1 0.321467 0.142822 0.209127 55.845 -4.70565e-07 
317 1 0.357114 0.178443 0.209082 55.845 -3.05658e-07 
405 1 0.285701 0.178473 0.125231 55.845 3.81682e-07 
406 1 0.285777 0.214282 0.166573 55.845 1.84875e-07 
407 1 0.321436 0.214243 0.125154 55.845 3.28434e-07 
416 1 0.285692 0.142796 0.166487 55.845 1.67707e-07 
417 1 0.321349 0.142882 0.1251 55.845 2.6941e-07 
418 1 0.321384 0.178564 0.166582 55.845 7.71423e-08 
419 1 0.357135 0.178517 0.125339 55.845 3.77656e-07 
420 1 0.357193 0.214312 0.166689 55.845 3.71289e-08 
432 1 0.357169 0.142827 0.166561 55.845 -3.62774e-08 
507 1 0.285714 0.178571 0.0416667 55.845 5.10034e-07 
508 1 0.285748 0.214298 0.0831923 55.845 -5.33669e-07 
509 1 0.321429 0.214286 0.0416667 55.845 3.94159e-07 
518 1 0.285665 0.142855 0.0830683 55.845 -5.91512e-07 
519 1 0.321429 0.142857 0.0416667 55.845 3.91016e-07 
520 1 0.321477 0.178554 0.083068 55.845 -5.8938e-07 
521 1 0.357143 0.178571 0.0416667 55.845 3.29507e-07 
522 1 0.357096 0.214242 0.0830523 55.845 -6.99399e-07 
534 1 0.357091 0.142882 0.0831499 55.845 -6.34618e-07 
585 1 0.285714 0.214286 0 55.845 -1.26103e-07 
590 1 0.285714 0.142857 0 55.845 -1.23291e-07 
591 1 0.321429 0.178571 0 55.845 -2.61945e-08 
592 1 0.357143 0.214286 0 55.845 1.20156e-07 
598 1 0.357143 0.142857 0 55.845 1.56576e-07 
319 1 0.392902 0.214285 0.209058 55.845 -2.31908e-07 
321 1 0.428678 0.250001 0.209324 55.845 -2.63689e-07 
331 1 0.392877 0.142742 0.209126 55.845 -1.89959e-07 
333 1 0.428566 0.178499 0.209104 55.845 -1.79633e-07 
335 1 0.464331 0.214278 0.209197 55.845 -2.15366e-07 
345 1 0.464303 0.142856 0.20915 55.845 -2.97424e-07 
606 1 0.464286 0.178571 0 55.845 2.40159e-07 
421 1 0.392859 0.214246 0.124869 55.845 2.90109e-07 
422 1 0.392865 0.249965 0.16638 55.845 4.78687e-08 
423 1 0.428637 0.249995 0.125073 55.845 1.91825e-07 
433 1 0.392807 0.14287 0.12501 55.845 3.52066e-07 
434 1 0.392875 0.178552 0.16656 55.845 -1.19156e-07 
435 1 0.428593 0.178531 0.124978 55.845 1.72905e-07 
436 1 0.428565 0.214235 0.166606 55.845 -2.48728e-08 
437 1 0.464251 0.21431 0.125246 55.845 1.5623e-07 
605 1 0.428571 0.142857 0 55.845 2.49003e-07 
446 1 0.428488 0.142809 0.166542 55.845 -4.52776e-08 
447 1 0.464247 0.142855 0.124873 55.845 6.32435e-08 
448 1 0.464215 0.178531 0.166592 55.845 5.94817e-08 
523 1 0.392857 0.214286 0.0416667 55.845 4.50207e-07 
524 1 0.392877 0.249986 0.0830723 55.845 -6.90755e-07 
525 1 0.428571 0.25 0.0416667 55.845 5.59803e-07 
535 1 0.392857 0.142857 0.0416667 55.845 3.74096e-07 
536 1 0.392923 0.178504 0.0832167 55.845 -7.19789e-07 
537 1 0.428571 0.178571 0.0416667 55.845 4.56904e-07 
538 1 0.428641 0.214216 0.0830436 55.845 -7.70565e-07 
539 1 0.464286 0.214286 0.0416667 55.845 5.10538e-07 
548 1 0.428458 0.14276 0.0828457 55.845 -6.52863e-07 
549 1 0.464286 0.142857 0.0416667 55.845 4.0729e-07 
550 1 0.464251 0.178526 0.0831314 55.845 -7.54669e-07 
593 1 0.392857 0.25 0 55.845 1.45669e-07 
599 1 0.392857 0.178571 0 55.845 2.34186e-07 
600 1 0.428571 0.214286 0 55.845 2.17751e-07 
3 1 3.17286e-05 0.107096 0.459875 55.845 5.48037e-07 
7 1 6.91766e-05 0.0356334 0.459992 55.845 4.12079e-07 
8 1 0.0357419 0.0713821 0.460046 55.845 5.26732e-07 
9 1 0.0714797 0.107202 0.460015 55.845 5e-07 
13 1 0.0357248 6.52772e-05 0.460062 55.845 4.4437e-07 
14 1 0.0713721 0.0355627 0.460013 55.845 5.03183e-07 
15 1 0.107256 0.0713339 0.459933 55.845 4.80341e-07 
20 1 0.10709 5.36996e-05 0.460086 55.845 5.2119e-07 
55 1 0.000107746 0.107198 0.375491 55.845 -6.2467e-08 
63 1 0.000103145 0.0356399 0.37546 55.845 1.57644e-07 
64 1 7.81786e-05 0.0714329 0.418332 55.845 9.64886e-08 
65 1 0.0357389 0.0714103 0.375411 55.845 3.21127e-08 
66 1 0.0357723 0.107051 0.418559 55.845 1.30164e-07 
67 1 0.0714989 0.10719 0.375591 55.845 -2.47619e-08 
74 1 5.01838e-05 -5.49448e-05 0.418287 55.845 1.3655e-08 
75 1 0.035666 -0.000114139 0.375592 55.845 2.36141e-07 
76 1 0.0357605 0.0356369 0.418329 55.845 9.17889e-08 
77 1 0.071365 0.0356761 0.375516 55.845 1.64454e-07 
78 1 0.0714055 0.0713723 0.418516 55.845 4.72336e-08 
79 1 0.107149 0.0715117 0.375479 55.845 1.3818e-07 
80 1 0.10704 0.10711 0.418551 55.845 8.25786e-08 
88 1 0.0714795 -9.30484e-05 0.418448 55.845 6.09332e-08 
89 1 0.107132 -3.18492e-05 0.375388 55.845 1.49914e-07 
90 1 0.107035 0.0357134 0.418242 55.845 4.50698e-08 
157 1 2.86902e-05 0.107126 0.292675 55.845 1.84875e-07 
165 1 -7.28851e-05 0.0356466 0.292712 55.845 1.51534e-07 
166 1 0.000114201 0.0713729 0.333555 55.845 -1.61353e-07 
167 1 0.0356664 0.0714667 0.292714 55.845 2.04682e-07 
168 1 0.0357198 0.107106 0.333699 55.845 -2.48251e-07 
169 1 0.0714312 0.107129 0.292598 55.845 1.36674e-07 
176 1 -5.37069e-05 -0.000102423 0.333555 55.845 -1.1282e-07 
177 1 0.0357633 -2.93774e-05 0.292744 55.845 1.66073e-07 
178 1 0.0356485 0.035696 0.333594 55.845 -2.174e-07 
179 1 0.071357 0.0356149 0.292875 55.845 1.93553e-07 
180 1 0.0713144 0.0714951 0.333651 55.845 -1.78239e-07 
181 1 0.107081 0.071318 0.292598 55.845 1.80129e-07 
182 1 0.10708 0.107159 0.333574 55.845 -1.43045e-07 
190 1 0.0713723 -0.000173595 0.333763 55.845 -2.67162e-07 
191 1 0.107148 1.72731e-05 0.292716 55.845 1.80267e-07 
192 1 0.107059 0.0358106 0.333571 55.845 -2.64227e-07 
268 1 7.62195e-07 0.0713727 0.251354 55.845 -4.03403e-08 
270 1 0.0357251 0.107106 0.251231 55.845 8.77866e-08 
278 1 -5.6563e-06 -7.31631e-05 0.251596 55.845 -4.38616e-08 
280 1 0.0356859 0.0357085 0.251383 55.845 -4.50872e-08 
282 1 0.0713705 0.0714166 0.251429 55.845 -8.87486e-09 
284 1 0.107142 0.107049 0.251309 55.845 6.30668e-08 
292 1 0.0715155 -9.57434e-05 0.251501 55.845 -8.69256e-08 
294 1 0.10711 0.035673 0.251407 55.845 4.23689e-08 
16 1 0.142841 0.107059 0.45996 55.845 3.91902e-07 
21 1 0.142851 0.0357978 0.459914 55.845 5.94407e-07 
22 1 0.178477 0.071483 0.459889 55.845 4.37026e-07 
23 1 0.214241 0.107143 0.459881 55.845 3.72054e-07 
27 1 0.178582 2.3668e-05 0.459853 55.845 6.86732e-07 
28 1 0.214132 0.035777 0.459898 55.845 6.21795e-07 
29 1 0.249936 0.0714784 0.459919 55.845 4.59911e-07 
81 1 0.142813 0.107157 0.375499 55.845 1.37419e-07 
91 1 0.142828 0.0356727 0.375604 55.845 9.57479e-08 
92 1 0.142781 0.0714894 0.418431 55.845 4.2034e-08 
93 1 0.178502 0.0713484 0.375635 55.845 1.00871e-07 
94 1 0.178686 0.107199 0.418222 55.845 3.5954e-08 
95 1 0.214342 0.107118 0.37546 55.845 2.58294e-07 
102 1 0.142821 4.76641e-05 0.418433 55.845 9.9845e-08 
103 1 0.178579 -4.41841e-05 0.375563 55.845 -4.96861e-08 
104 1 0.178581 0.0357294 0.418262 55.845 9.24463e-08 
105 1 0.214254 0.0356447 0.375525 55.845 -7.99169e-08 
106 1 0.214262 0.0714754 0.418422 55.845 1.20334e-07 
107 1 0.24993 0.0713587 0.375508 55.845 5.98827e-08 
108 1 0.250044 0.107074 0.418364 55.845 8.78694e-08 
118 1 0.214285 -4.18225e-05 0.418289 55.845 1.78448e-07 
120 1 0.249946 0.0357721 0.418348 55.845 1.0973e-07 
183 1 0.142775 0.107124 0.292694 55.845 1.11167e-07 
193 1 0.142943 0.0357806 0.292639 55.845 1.53439e-07 
194 1 0.142742 0.0714757 0.333565 55.845 -1.87158e-07 
195 1 0.178505 0.0714453 0.292924 55.845 1.65877e-07 
196 1 0.17851 0.107128 0.333712 55.845 -1.15605e-07 
197 1 0.214227 0.107123 0.292924 55.845 1.79506e-07 
204 1 0.142798 6.62493e-05 0.333604 55.845 -2.6372e-07 
205 1 0.178608 3.33669e-06 0.292645 55.845 1.68502e-07 
206 1 0.178594 0.0357136 0.333595 55.845 -1.4948e-07 
207 1 0.214331 0.0356721 0.292576 55.845 1.16606e-07 
208 1 0.214293 0.0713772 0.333675 55.845 -6.40003e-08 
209 1 0.250046 0.0714594 0.292665 55.845 2.59077e-07 
210 1 0.249984 0.107158 0.33366 55.845 -1.77006e-07 
220 1 0.214279 5.18179e-05 0.333665 55.845 -2.00338e-07 
222 1 0.249901 0.0355939 0.333567 55.845 -1.78479e-07 
296 1 0.142905 0.0714633 0.2515 55.845 -4.49028e-08 
298 1 0.178491 0.107079 0.251562 55.845 -1.52579e-07 
306 1 0.142927 1.24497e-05 0.251284 55.845 5.23087e-08 
308 1 0.178579 0.0357483 0.251401 55.845 1.31121e-07 
310 1 0.214295 0.07149 0.251332 55.845 -3.62709e-08 
312 1 0.249938 0.107109 0.251424 55.845 -3.9454e-08 
322 1 0.214324 2.64204e-05 0.251279 55.845 1.65065e-07 
324 1 0.250052 0.0356756 0.25133 55.845 4.96647e-08 
30 1 0.285653 0.107003 0.45998 55.845 4.13294e-07 
35 1 0.249963 4.73845e-05 0.459866 55.845 6.31437e-07 
36 1 0.285677 0.035648 0.459999 55.845 5.42057e-07 
37 1 0.321435 0.0714006 0.459861 55.845 5.08795e-07 
38 1 0.357123 0.107112 0.459956 55.845 5.77254e-07 
42 1 0.321529 1.87583e-05 0.459922 55.845 5.71673e-07 
43 1 0.357066 0.0357429 0.460105 55.845 6.20261e-07 
109 1 0.285629 0.107082 0.375648 55.845 1.26667e-07 
119 1 0.250013 5.54488e-05 0.375639 55.845 -1.10848e-07 
121 1 0.285635 0.0356882 0.375548 55.845 -4.52982e-08 
122 1 0.285777 0.0713885 0.418258 55.845 1.70537e-07 
123 1 0.321311 0.0714833 0.375466 55.845 6.51033e-09 
124 1 0.321416 0.107183 0.418399 55.845 8.6002e-08 
125 1 0.357108 0.107117 0.375404 55.845 1.28733e-07 
133 1 0.321445 -6.71104e-05 0.37557 55.845 1.18326e-07 
134 1 0.321336 0.0357327 0.418386 55.845 1.52156e-07 
135 1 0.357107 0.0356996 0.37542 55.845 1.90009e-07 
136 1 0.357114 0.071498 0.418309 55.845 9.92422e-09 
211 1 0.285706 0.10713 0.292684 55.845 1.95898e-07 
221 1 0.250002 -3.70885e-05 0.292799 55.845 1.89954e-07 
223 1 0.285632 0.0357121 0.29275 55.845 1.74881e-07 
224 1 0.2857 0.0713631 0.333454 55.845 -1.38047e-07 
225 1 0.32137 0.0712897 0.292768 55.845 1.8137e-07 
226 1 0.321374 0.107099 0.333634 55.845 -1.91926e-07 
227 1 0.35712 0.107077 0.292628 55.845 1.92314e-07 
235 1 0.321369 -6.3181e-05 0.292785 55.845 2.36829e-07 
236 1 0.321278 0.0357597 0.3337 55.845 -1.80978e-07 
237 1 0.356984 0.0356325 0.292936 55.845 1.74866e-07 
238 1 0.357095 0.0714438 0.333489 55.845 -1.20439e-07 
326 1 0.285692 0.0713505 0.251224 55.845 8.07296e-09 
328 1 0.32154 0.107005 0.251305 55.845 1.17761e-08 
338 1 0.321423 0.0356637 0.251377 55.845 3.00741e-09 
340 1 0.357068 0.0713963 0.251246 55.845 -6.81929e-09 
44 1 0.392852 0.0714253 0.460031 55.845 6.48408e-07 
45 1 0.42842 0.10721 0.459745 55.845 6.56853e-07 
47 1 0.392927 7.76179e-05 0.459955 55.845 4.97752e-07 
48 1 0.428481 0.0357217 0.460049 55.845 5.33612e-07 
49 1 0.464326 0.0713786 0.459815 55.845 6.30794e-07 
50 1 0.464282 -1.00653e-05 0.459921 55.845 4.54083e-07 
137 1 0.392855 0.0714912 0.375404 55.845 1.95077e-07 
138 1 0.39277 0.107266 0.418266 55.845 -4.07048e-09 
139 1 0.428503 0.107029 0.375496 55.845 1.87324e-07 
144 1 0.392799 0.000164843 0.375576 55.845 1.82713e-07 
145 1 0.392774 0.0357783 0.418197 55.845 9.72038e-09 
146 1 0.42857 0.0357476 0.375521 55.845 2.14062e-07 
147 1 0.428569 0.0714374 0.418318 55.845 -1.55273e-08 
148 1 0.464381 0.0713467 0.375365 55.845 1.21608e-07 
149 1 0.464178 0.107111 0.418417 55.845 5.80968e-08 
150 1 0.428498 0.000105842 0.418409 55.845 3.66964e-08 
151 1 0.46427 9.28973e-06 0.375581 55.845 3.12197e-07 
152 1 0.464358 0.0356483 0.418345 55.845 3.08191e-08 
239 1 0.392755 0.0714467 0.292662 55.845 2.49682e-07 
240 1 0.392799 0.107096 0.333455 55.845 -3.08713e-07 
241 1 0.428549 0.107141 0.292694 55.845 2.05865e-07 
246 1 0.392771 8.59711e-05 0.292731 55.845 2.28291e-07 
247 1 0.392867 0.0356633 0.333445 55.845 -1.71716e-07 
248 1 0.42855 0.0357284 0.292729 55.845 1.91115e-07 
249 1 0.428666 0.0713608 0.333623 55.845 -2.32916e-07 
250 1 0.464344 0.0714444 0.292713 55.845 2.45677e-07 
251 1 0.4642 0.1071 0.333534 55.845 -2.43479e-07 
252 1 0.428501 2.92823e-05 0.333813 55.845 -1.20319e-07 
253 1 0.46425 4.27126e-05 0.29256 55.845 2.75025e-07 
254 1 0.464269 0.0356828 0.333476 55.845 -1.33225e-07 
342 1 0.39285 0.107142 0.251328 55.845 7.23536e-08 
349 1 0.392799 0.0357848 0.251278 55.845 -2.09924e-08 
351 1 0.428542 0.0714755 0.251407 55.845 3.12634e-08 
353 1 0.464203 0.10715 0.251212 55.845 9.30182e-08 
354 1 0.428563 9.71758e-05 0.251398 55.845 -7.32505e-08 
356 1 0.46433 0.0357234 0.251168 55.845 -1.43328e-07 
1 1 -2.59405e-06 0.17862 0.459972 55.845 6.90935e-07 
2 1 0.0357233 0.214286 0.459865 55.845 6.61993e-07 
4 1 0.0356908 0.142812 0.459919 55.845 5.71663e-07 
5 1 0.0714021 0.178616 0.460142 55.845 5.11078e-07 
6 1 0.107205 0.214232 0.459931 55.845 3.81575e-07 
10 1 0.107024 0.142896 0.459774 55.845 3.76294e-07 
51 1 -4.37283e-05 0.178581 0.37548 55.845 3.27995e-08 
52 1 5.91887e-05 0.214301 0.418391 55.845 3.24191e-08 
53 1 0.0357272 0.214248 0.375567 55.845 7.7854e-08 
54 1 0.0356473 0.24994 0.418214 55.845 1.39186e-07 
56 1 6.16992e-05 0.142846 0.418402 55.845 7.19591e-08 
57 1 0.0356825 0.142847 0.375574 55.845 -4.15267e-08 
58 1 0.0356845 0.178488 0.418354 55.845 6.7813e-08 
59 1 0.0713817 0.178547 0.375493 55.845 1.0666e-07 
60 1 0.0714408 0.214206 0.418313 55.845 9.8536e-08 
61 1 0.107244 0.214288 0.375576 55.845 2.12051e-07 
62 1 0.107107 0.249981 0.418251 55.845 1.35864e-07 
68 1 0.0714494 0.142917 0.418267 55.845 1.73424e-07 
69 1 0.107146 0.142859 0.375571 55.845 1.54696e-08 
70 1 0.10716 0.178567 0.418498 55.845 1.52991e-07 
153 1 4.96187e-05 0.178617 0.292381 55.845 2.52637e-07 
154 1 4.21307e-05 0.214202 0.333543 55.845 -2.50601e-07 
155 1 0.0357241 0.214265 0.292667 55.845 2.01257e-07 
156 1 0.035711 0.249889 0.333578 55.845 -2.01389e-07 
158 1 5.45901e-05 0.142904 0.333543 55.845 -3.11191e-07 
159 1 0.0357606 0.14291 0.292651 55.845 1.85746e-07 
160 1 0.0355944 0.178543 0.333542 55.845 -3.29862e-07 
161 1 0.071358 0.178619 0.292715 55.845 1.88079e-07 
162 1 0.0714732 0.214292 0.333576 55.845 -1.37928e-07 
163 1 0.107155 0.214274 0.29273 55.845 1.30468e-07 
164 1 0.107136 0.249963 0.333682 55.845 -1.51737e-07 
170 1 0.0713845 0.142864 0.333589 55.845 -9.6019e-08 
171 1 0.107112 0.142875 0.292653 55.845 1.81251e-07 
172 1 0.107166 0.178432 0.333618 55.845 -8.61944e-08 
256 1 2.03134e-05 0.214164 0.251191 55.845 6.62462e-08 
258 1 0.0357546 0.249929 0.251289 55.845 1.22374e-07 
260 1 -9.59404e-06 0.142799 0.251184 55.845 1.19169e-07 
262 1 0.0359112 0.178609 0.251207 55.845 1.1645e-07 
264 1 0.071444 0.214183 0.251502 55.845 1.7454e-09 
266 1 0.107144 0.249927 0.25131 55.845 4.08933e-08 
272 1 0.071478 0.142898 0.25131 55.845 5.97332e-08 
274 1 0.107245 0.178594 0.251273 55.845 9.60751e-08 
11 1 0.142892 0.178555 0.459807 55.845 4.01205e-07 
12 1 0.178569 0.214255 0.459624 55.845 3.6806e-07 
17 1 0.1786 0.142917 0.459974 55.845 3.43935e-07 
18 1 0.214307 0.178583 0.460056 55.845 3.63138e-07 
19 1 0.249946 0.214207 0.459916 55.845 3.43719e-07 
24 1 0.249943 0.142889 0.4598 55.845 3.8805e-07 
71 1 0.1429 0.178468 0.375454 55.845 1.94215e-07 
72 1 0.142838 0.214244 0.418244 55.845 3.43036e-08 
73 1 0.178489 0.214273 0.375363 55.845 3.44901e-07 
82 1 0.142823 0.142762 0.418356 55.845 1.49884e-07 
83 1 0.178627 0.142919 0.375401 55.845 1.84768e-07 
84 1 0.178519 0.178427 0.418175 55.845 4.53298e-09 
85 1 0.214416 0.17848 0.37548 55.845 3.28204e-07 
86 1 0.214307 0.214148 0.418076 55.845 -1.78986e-08 
87 1 0.250016 0.214255 0.375281 55.845 1.46416e-07 
96 1 0.214263 0.142802 0.418434 55.845 1.85345e-08 
97 1 0.249961 0.142832 0.375497 55.845 2.46743e-07 
98 1 0.250008 0.178489 0.418286 55.845 3.47798e-08 
173 1 0.142873 0.178419 0.292612 55.845 1.91953e-07 
174 1 0.142897 0.214152 0.333601 55.845 5.95023e-08 
175 1 0.178562 0.214194 0.292718 55.845 1.49287e-07 
184 1 0.142923 0.142772 0.333602 55.845 -2.16181e-08 
185 1 0.178651 0.142865 0.292726 55.845 2.00923e-07 
186 1 0.178664 0.178506 0.333594 55.845 -2.37464e-08 
187 1 0.214329 0.178524 0.292722 55.845 1.57951e-07 
188 1 0.214198 0.214239 0.333544 55.845 9.23617e-09 
189 1 0.249952 0.214291 0.292593 55.845 1.53274e-07 
198 1 0.214351 0.142833 0.333664 55.845 -3.70653e-08 
199 1 0.250084 0.142868 0.292771 55.845 2.26139e-07 
200 1 0.250025 0.178526 0.333646 55.845 -7.39469e-08 
276 1 0.142885 0.214315 0.251155 55.845 -8.01995e-09 
286 1 0.142877 0.142771 0.251227 55.845 -1.53499e-07 
288 1 0.178544 0.178565 0.251362 55.845 -2.15802e-07 
290 1 0.214248 0.214183 0.251248 55.845 -1.40304e-07 
300 1 0.214251 0.142906 0.251275 55.845 -2.91095e-07 
302 1 0.25001 0.17864 0.251147 55.845 -1.96346e-07 
25 1 0.285734 0.178596 0.459774 55.845 4.03515e-07 
26 1 0.321442 0.214358 0.460047 55.845 5.10233e-07 
31 1 0.321354 0.142867 0.459955 55.845 5.00551e-07 
32 1 0.357097 0.178629 0.459907 55.845 5.36012e-07 
99 1 0.285748 0.178566 0.375461 55.845 1.21197e-07 
100 1 0.285717 0.214201 0.418283 55.845 1.25108e-07 
101 1 0.321431 0.214327 0.375497 55.845 8.75006e-08 
110 1 0.285652 0.142872 0.418432 55.845 7.31365e-08 
111 1 0.321339 0.142895 0.375457 55.845 9.12972e-08 
112 1 0.321371 0.178691 0.418314 55.845 8.85773e-08 
113 1 0.357055 0.178513 0.375478 55.845 1.42691e-07 
114 1 0.357122 0.214275 0.418355 55.845 1.08052e-07 
126 1 0.35707 0.142869 0.418349 55.845 4.35721e-08 
201 1 0.285693 0.17863 0.292577 55.845 1.45074e-07 
202 1 0.285654 0.214246 0.333427 55.845 -8.10724e-09 
203 1 0.321453 0.214333 0.292539 55.845 2.98713e-07 
212 1 0.285757 0.142761 0.333597 55.845 -5.03199e-08 
213 1 0.321396 0.14289 0.292602 55.845 1.67389e-07 
214 1 0.321425 0.17851 0.333364 55.845 -2.26784e-07 
215 1 0.357184 0.178481 0.292722 55.845 2.08341e-07 
216 1 0.357125 0.214385 0.333369 55.845 -3.19328e-07 
228 1 0.3571 0.142709 0.333663 55.845 -2.64347e-07 