ITEM: TIMESTEP
2600
ITEM: NUMBER OF ATOMS
5880
ITEM: BOX BOUNDS pp pp ff
-27.9578 27.9578
-27.9578 27.9578
0 34.092
ITEM: ATOMS id type xs ys zs mass q 
259 1 -6.12911e-05 0.107099 0.20984 55.845 -4.63642e-07 
267 1 5.20614e-05 0.035719 0.209771 55.845 2.09341e-07 
269 1 0.0357087 0.0714102 0.20982 55.845 4.98e-07 
271 1 0.0714635 0.107153 0.209921 55.845 5.29388e-08 
279 1 0.0357241 -4.64223e-05 0.209861 55.845 3.31913e-07 
281 1 0.0713624 0.0356825 0.209904 55.845 7.67581e-07 
283 1 0.107124 0.0713966 0.209968 55.845 6.39033e-07 
293 1 0.107054 -1.83349e-05 0.209834 55.845 1.74102e-07 
361 1 -4.11764e-05 0.107209 0.126429 55.845 -5.08948e-07 
369 1 -0.00012948 0.0357674 0.12633 55.845 -3.18189e-07 
370 1 -1.73018e-05 0.071461 0.168129 55.845 -4.93532e-07 
371 1 0.0357346 0.071548 0.126285 55.845 -4.98021e-07 
372 1 0.0357594 0.107117 0.168235 55.845 4.17238e-07 
373 1 0.071528 0.107154 0.126442 55.845 -1.92151e-07 
380 1 1.21008e-05 -3.16519e-05 0.168184 55.845 -2.7826e-07 
381 1 0.0356943 -3.41484e-06 0.126314 55.845 -3.20792e-07 
382 1 0.0356886 0.0357325 0.168126 55.845 4.56157e-07 
383 1 0.0714895 0.0357737 0.12633 55.845 -2.20563e-07 
384 1 0.0715247 0.0714473 0.168223 55.845 -8.28077e-07 
385 1 0.107232 0.0713842 0.126214 55.845 -1.41315e-07 
386 1 0.107211 0.107161 0.168245 55.845 -6.92171e-07 
394 1 0.0714183 1.2545e-05 0.168124 55.845 2.03308e-07 
395 1 0.107115 -1.45988e-05 0.126435 55.845 -4.06939e-07 
396 1 0.107145 0.0356702 0.168166 55.845 -3.1714e-08 
463 1 0 0.107143 0.0416667 55.845 -2.42634e-07 
471 1 0 0.0357143 0.0416667 55.845 -1.51816e-07 
472 1 1.70351e-05 0.071473 0.0837142 55.845 9.23745e-07 
473 1 0.0357143 0.0714286 0.0416667 55.845 -4.2967e-07 
474 1 0.0357153 0.107173 0.083771 55.845 2.10715e-07 
475 1 0.0714286 0.107143 0.0416667 55.845 -2.07827e-07 
482 1 -1.47965e-05 -3.6967e-05 0.0836962 55.845 7.87976e-08 
483 1 0.0357143 0 0.0416667 55.845 6.91526e-08 
484 1 0.0356188 0.0357153 0.0837798 55.845 4.35217e-07 
485 1 0.0714286 0.0357143 0.0416667 55.845 -2.27894e-07 
486 1 0.0714254 0.0714667 0.0837049 55.845 6.79802e-07 
487 1 0.107143 0.0714286 0.0416667 55.845 -2.15054e-07 
488 1 0.107236 0.107167 0.0836821 55.845 -2.29571e-07 
496 1 0.0713739 2.47514e-05 0.0837262 55.845 1.8425e-07 
497 1 0.107143 0 0.0416667 55.845 -1.57379e-07 
498 1 0.107187 0.0357009 0.0836053 55.845 4.0982e-07 
567 1 0 0.0714286 0 55.845 2.2721e-07 
568 1 0.0357143 0.107143 0 55.845 5.45708e-07 
572 1 0 0 0 55.845 -4.52843e-07 
573 1 0.0357143 0.0357143 0 55.845 9.22004e-08 
574 1 0.0714286 0.0714286 0 55.845 2.96201e-07 
575 1 0.107143 0.107143 0 55.845 -2.86362e-08 
579 1 0.0714286 0 0 55.845 -3.9862e-08 
580 1 0.107143 0.0357143 0 55.845 2.02222e-07 
285 1 0.142838 0.10712 0.209872 55.845 -5.91693e-08 
295 1 0.14287 0.0357018 0.209809 55.845 3.3731e-07 
297 1 0.178625 0.0714476 0.209904 55.845 8.71822e-07 
299 1 0.214244 0.107118 0.209799 55.845 -8.75962e-08 
307 1 0.178563 1.02491e-05 0.209836 55.845 9.62931e-08 
309 1 0.214293 0.0357323 0.209936 55.845 4.45095e-07 
311 1 0.249951 0.0715241 0.209894 55.845 6.18776e-07 
387 1 0.142921 0.10709 0.12638 55.845 8.68378e-08 
397 1 0.1429 0.03567 0.126354 55.845 9.21976e-08 
398 1 0.142901 0.0713518 0.168251 55.845 -1.09796e-06 
399 1 0.17862 0.0713635 0.126451 55.845 1.71959e-07 
400 1 0.178586 0.107133 0.168115 55.845 8.21969e-08 
401 1 0.214327 0.10711 0.126384 55.845 -6.79784e-08 
408 1 0.142844 -0.000101891 0.168274 55.845 -1.51302e-08 
409 1 0.178574 2.96996e-05 0.12638 55.845 1.32837e-07 
410 1 0.178646 0.0357115 0.168378 55.845 -3.06896e-07 
411 1 0.21429 0.0357145 0.126374 55.845 3.06339e-07 
412 1 0.214281 0.0714412 0.16821 55.845 -5.87028e-07 
413 1 0.250018 0.0714374 0.126393 55.845 -6.09715e-07 
414 1 0.250047 0.107119 0.168144 55.845 2.70487e-07 
424 1 0.2143 -1.45153e-05 0.168239 55.845 -8.48683e-08 
426 1 0.249987 0.0357386 0.168223 55.845 -2.20948e-07 
489 1 0.142857 0.107143 0.0416667 55.845 2.46503e-07 
499 1 0.142857 0.0357143 0.0416667 55.845 7.52066e-08 
500 1 0.14292 0.0713778 0.0837402 55.845 4.57043e-07 
501 1 0.178571 0.0714286 0.0416667 55.845 -7.55903e-08 
502 1 0.17863 0.107142 0.0837643 55.845 -1.19273e-07 
503 1 0.214286 0.107143 0.0416667 55.845 1.15574e-07 
510 1 0.142838 -4.50252e-05 0.0836643 55.845 1.10368e-07 
511 1 0.178571 0 0.0416667 55.845 4.61256e-07 
512 1 0.178587 0.0356947 0.0836086 55.845 1.76493e-08 
513 1 0.214286 0.0357143 0.0416667 55.845 4.99915e-08 
514 1 0.214322 0.0714557 0.0837144 55.845 3.31861e-07 
515 1 0.25 0.0714286 0.0416667 55.845 -5.5096e-07 
516 1 0.250005 0.107125 0.0836722 55.845 5.53917e-08 
526 1 0.214326 -4.03512e-05 0.0835662 55.845 2.20423e-08 
528 1 0.250007 0.0357007 0.0835865 55.845 -1.51297e-07 
581 1 0.142857 0.0714286 0 55.845 -1.4412e-07 
582 1 0.178571 0.107143 0 55.845 3.27558e-07 
586 1 0.142857 0 0 55.845 -1.9198e-07 
587 1 0.178571 0.0357143 0 55.845 5.71285e-09 
588 1 0.214286 0.0714286 0 55.845 4.29572e-07 
589 1 0.25 0.107143 0 55.845 5.02037e-07 
594 1 0.214286 0 0 55.845 5.08414e-09 
595 1 0.25 0.0357143 0 55.845 2.3814e-07 
313 1 0.285703 0.107218 0.209911 55.845 -6.86348e-08 
323 1 0.249984 4.75833e-05 0.209841 55.845 1.15771e-07 
325 1 0.285662 0.0357321 0.209958 55.845 5.56695e-08 
327 1 0.321453 0.0714343 0.209854 55.845 4.19042e-07 
329 1 0.357222 0.107183 0.20994 55.845 2.61664e-07 
337 1 0.321362 -9.19696e-05 0.209839 55.845 -1.8463e-07 
339 1 0.357083 0.0357392 0.209794 55.845 4.5277e-07 
415 1 0.285725 0.107133 0.126373 55.845 2.06049e-08 
425 1 0.250014 -7.88487e-06 0.126317 55.845 1.50546e-07 
427 1 0.285665 0.0357748 0.126463 55.845 -2.5433e-08 
428 1 0.285723 0.0714941 0.168287 55.845 -8.07607e-07 
429 1 0.321368 0.0714346 0.126413 55.845 3.62371e-07 
430 1 0.321444 0.107175 0.168224 55.845 -3.78495e-07 
431 1 0.357089 0.107135 0.126335 55.845 5.81223e-07 
439 1 0.321482 -3.3955e-05 0.126247 55.845 6.63412e-07 
440 1 0.321394 0.0356988 0.168265 55.845 -4.77788e-07 
441 1 0.357098 0.0356767 0.126294 55.845 6.59753e-07 
442 1 0.357141 0.0714648 0.168165 55.845 -7.74275e-07 
517 1 0.285714 0.107143 0.0416667 55.845 -2.7544e-07 
527 1 0.25 0 0.0416667 55.845 -6.41053e-08 
529 1 0.285714 0.0357143 0.0416667 55.845 -3.21736e-07 
530 1 0.285749 0.0714248 0.0837365 55.845 -1.74457e-07 
531 1 0.321429 0.0714286 0.0416667 55.845 -3.61408e-07 
532 1 0.321431 0.107136 0.0836053 55.845 -2.05725e-07 
533 1 0.357143 0.107143 0.0416667 55.845 -3.57944e-07 
603 1 0.357143 0.0714286 0 55.845 1.55506e-07 
541 1 0.321429 0 0.0416667 55.845 2.79248e-07 
542 1 0.321338 0.0357747 0.0838058 55.845 -3.61951e-07 
543 1 0.357143 0.0357143 0.0416667 55.845 3.73076e-08 
544 1 0.357181 0.0714015 0.0836857 55.845 4.20461e-07 
602 1 0.321429 0.0357143 0 55.845 1.63509e-07 
596 1 0.285714 0.0714286 0 55.845 3.19883e-07 
597 1 0.321429 0.107143 0 55.845 3.3047e-07 
612 1 0.464286 0.0357143 0 55.845 1.60443e-07 
611 1 0.428571 0 0 55.845 1.43282e-07 
610 1 0.464286 0.107143 0 55.845 3.10762e-08 
609 1 0.428571 0.0714286 0 55.845 2.60658e-07 
608 1 0.392857 0.0357143 0 55.845 2.82048e-07 
341 1 0.392812 0.0714221 0.209772 55.845 9.54244e-07 
343 1 0.428639 0.107146 0.209705 55.845 3.60685e-07 
348 1 0.392845 -2.7096e-05 0.209786 55.845 6.36715e-07 
350 1 0.428564 0.0357835 0.209919 55.845 3.8111e-07 
352 1 0.464279 0.0713554 0.209931 55.845 6.9546e-07 
355 1 0.464283 2.47014e-05 0.209946 55.845 1.07947e-07 
443 1 0.392854 0.0714255 0.126321 55.845 4.37408e-07 
444 1 0.392866 0.107197 0.168113 55.845 -1.33267e-07 
445 1 0.428585 0.107191 0.126279 55.845 -6.11295e-08 
604 1 0.392857 0.107143 0 55.845 2.64011e-07 
450 1 0.392806 -4.1077e-05 0.12636 55.845 4.68053e-07 
451 1 0.392853 0.035722 0.168225 55.845 -2.22064e-08 
452 1 0.428553 0.035739 0.126341 55.845 2.62716e-07 
453 1 0.428533 0.0714804 0.168208 55.845 -3.67687e-07 
454 1 0.464278 0.0713031 0.12639 55.845 1.86697e-08 
455 1 0.464301 0.107081 0.168162 55.845 -8.97736e-07 
456 1 0.428561 2.23864e-05 0.168232 55.845 -6.89039e-08 
457 1 0.464308 -2.26071e-05 0.126411 55.845 3.7351e-08 
458 1 0.464329 0.0356857 0.168261 55.845 2.31331e-07 
545 1 0.392857 0.0714286 0.0416667 55.845 -5.51382e-07 
546 1 0.392756 0.107133 0.0836677 55.845 -1.01865e-07 
547 1 0.428571 0.107143 0.0416667 55.845 -6.17318e-07 
552 1 0.392857 0 0.0416667 55.845 -4.87407e-08 
553 1 0.392832 0.0357066 0.0836361 55.845 1.04732e-07 
554 1 0.428571 0.0357143 0.0416667 55.845 -2.43674e-07 
555 1 0.428593 0.0714516 0.0836335 55.845 -3.47018e-08 
556 1 0.464286 0.0714286 0.0416667 55.845 -3.58424e-07 
557 1 0.464347 0.10708 0.0836193 55.845 -5.49648e-07 
558 1 0.428561 -3.78685e-05 0.0837944 55.845 -1.98281e-07 
559 1 0.464286 0 0.0416667 55.845 -1.63066e-07 
560 1 0.464315 0.0356937 0.0835799 55.845 3.50185e-08 
255 1 -5.44569e-06 0.178621 0.209986 55.845 3.0562e-07 
257 1 0.0357233 0.214308 0.209916 55.845 6.73546e-07 
261 1 0.035687 0.142837 0.209873 55.845 -4.75244e-07 
263 1 0.0715146 0.178589 0.209852 55.845 4.82825e-07 
265 1 0.107036 0.214364 0.209793 55.845 9.33391e-07 
273 1 0.107172 0.142861 0.209841 55.845 1.01332e-07 
357 1 3.08146e-05 0.178569 0.126338 55.845 -2.51215e-07 
358 1 3.99786e-05 0.214292 0.168237 55.845 1.47577e-07 
359 1 0.0356815 0.214288 0.126457 55.845 1.19472e-07 
360 1 0.0357283 0.250053 0.168322 55.845 -3.4739e-07 
362 1 -3.32126e-05 0.142937 0.168212 55.845 6.05024e-07 
363 1 0.0357215 0.142841 0.126263 55.845 -2.12701e-07 
364 1 0.0357563 0.178579 0.168261 55.845 -9.23034e-08 
365 1 0.0714055 0.178599 0.126386 55.845 2.7824e-07 
366 1 0.0714281 0.214332 0.168201 55.845 -8.55094e-07 
367 1 0.1071 0.214415 0.126288 55.845 6.65835e-07 
368 1 0.107073 0.250092 0.168176 55.845 1.63972e-07 
374 1 0.071509 0.142893 0.168144 55.845 -4.83221e-07 
375 1 0.107176 0.14283 0.126237 55.845 2.5457e-08 
376 1 0.107087 0.178622 0.168161 55.845 -7.47435e-07 
459 1 0 0.178571 0.0416667 55.845 -8.40456e-07 
460 1 4.5663e-05 0.21427 0.0836937 55.845 8.32376e-08 
461 1 0.0357143 0.214286 0.0416667 55.845 -7.94356e-07 
462 1 0.0356904 0.249996 0.0837701 55.845 -2.91747e-07 
464 1 -2.24177e-05 0.142855 0.0838161 55.845 3.20467e-07 
465 1 0.0357143 0.142857 0.0416667 55.845 -3.12064e-07 
466 1 0.0357504 0.1786 0.0837284 55.845 1.42535e-07 
467 1 0.0714286 0.178571 0.0416667 55.845 -3.28476e-07 
468 1 0.0714545 0.214298 0.0837735 55.845 3.21677e-07 
469 1 0.107143 0.214286 0.0416667 55.845 -2.68565e-07 
470 1 0.107105 0.249996 0.0835525 55.845 1.10031e-07 
476 1 0.0715347 0.142904 0.0835586 55.845 1.87995e-07 
477 1 0.107143 0.142857 0.0416667 55.845 2.34059e-07 
478 1 0.107115 0.178574 0.0835506 55.845 1.70436e-08 
561 1 0 0.214286 0 55.845 5.60269e-07 
562 1 0.0357143 0.25 0 55.845 6.43311e-08 
563 1 0 0.142857 0 55.845 4.8191e-07 
564 1 0.0357143 0.178571 0 55.845 4.55664e-07 
565 1 0.0714286 0.214286 0 55.845 5.09006e-08 
566 1 0.107143 0.25 0 55.845 3.0104e-08 
569 1 0.0714286 0.142857 0 55.845 -2.36523e-07 
570 1 0.107143 0.178571 0 55.845 -5.27289e-08 
275 1 0.142778 0.178579 0.209794 55.845 4.32138e-07 
277 1 0.178592 0.214374 0.209923 55.845 5.7523e-07 
287 1 0.178503 0.142808 0.209918 55.845 -8.23208e-08 
289 1 0.214266 0.178554 0.209792 55.845 3.52187e-07 
291 1 0.250049 0.214368 0.20983 55.845 8.52122e-07 
301 1 0.249981 0.142892 0.209888 55.845 -1.44467e-07 
377 1 0.142797 0.17862 0.126319 55.845 1.2018e-07 
378 1 0.142844 0.214278 0.168158 55.845 -8.63504e-08 
379 1 0.178576 0.214337 0.126317 55.845 -2.83856e-07 
388 1 0.142865 0.142827 0.168154 55.845 -9.06637e-07 
389 1 0.178579 0.142853 0.126398 55.845 -4.42798e-08 
390 1 0.178488 0.178562 0.168265 55.845 -1.71608e-07 
391 1 0.214274 0.178607 0.126144 55.845 -1.44437e-07 
392 1 0.214326 0.214228 0.168192 55.845 -2.32537e-07 
393 1 0.250008 0.214332 0.126364 55.845 1.18352e-07 
402 1 0.214306 0.142839 0.168224 55.845 1.66547e-07 
403 1 0.249963 0.142916 0.126248 55.845 -1.45422e-07 
404 1 0.249996 0.178601 0.168303 55.845 -4.20048e-07 
479 1 0.142857 0.178571 0.0416667 55.845 -1.98891e-07 
480 1 0.142808 0.214355 0.0836327 55.845 5.67268e-07 
481 1 0.178571 0.214286 0.0416667 55.845 -8.12777e-07 
490 1 0.142885 0.142899 0.0836709 55.845 -1.94537e-07 
491 1 0.178571 0.142857 0.0416667 55.845 8.6762e-08 
492 1 0.17853 0.178618 0.0836575 55.845 3.18145e-07 
493 1 0.214286 0.178571 0.0416667 55.845 -5.95386e-07 
494 1 0.214215 0.214336 0.0836235 55.845 2.32017e-07 
495 1 0.25 0.214286 0.0416667 55.845 -4.15259e-07 
504 1 0.214261 0.142849 0.0836915 55.845 3.47786e-07 
505 1 0.25 0.142857 0.0416667 55.845 1.27526e-07 
506 1 0.249981 0.178621 0.083607 55.845 3.55292e-07 
571 1 0.142857 0.214286 0 55.845 2.39935e-07 
576 1 0.142857 0.142857 0 55.845 -4.74807e-08 
577 1 0.178571 0.178571 0 55.845 1.25472e-07 
578 1 0.214286 0.214286 0 55.845 7.48287e-08 
583 1 0.214286 0.142857 0 55.845 2.28935e-07 
584 1 0.25 0.178571 0 55.845 7.75234e-08 
303 1 0.285756 0.178587 0.209917 55.845 5.24557e-07 
305 1 0.32138 0.214284 0.209886 55.845 5.50943e-07 
315 1 0.321463 0.142871 0.209966 55.845 -2.95476e-08 
317 1 0.357147 0.178585 0.209882 55.845 4.08867e-07 
405 1 0.285747 0.178578 0.126359 55.845 4.26006e-07 
406 1 0.285745 0.214276 0.168188 55.845 -1.32524e-06 
407 1 0.321467 0.21433 0.126341 55.845 4.92369e-07 
416 1 0.28572 0.142837 0.168312 55.845 -1.48093e-07 
417 1 0.321459 0.142859 0.126275 55.845 4.04836e-07 
418 1 0.321468 0.178597 0.168193 55.845 -8.48188e-07 
419 1 0.357177 0.178564 0.126423 55.845 3.02632e-07 
420 1 0.35716 0.214296 0.168247 55.845 -5.85198e-07 
432 1 0.357181 0.14281 0.168209 55.845 -2.99477e-07 
507 1 0.285714 0.178571 0.0416667 55.845 2.83193e-07 
508 1 0.285715 0.214338 0.0837111 55.845 3.07864e-08 
509 1 0.321429 0.214286 0.0416667 55.845 -7.39696e-08 
518 1 0.285697 0.142866 0.0836681 55.845 4.90274e-07 
519 1 0.321429 0.142857 0.0416667 55.845 4.60206e-07 
520 1 0.32133 0.178621 0.0837295 55.845 2.38792e-07 
521 1 0.357143 0.178571 0.0416667 55.845 -1.65538e-08 
522 1 0.357134 0.214265 0.0837008 55.845 2.08618e-07 
534 1 0.357098 0.142886 0.0837737 55.845 6.68616e-08 
585 1 0.285714 0.214286 0 55.845 -1.9988e-07 
590 1 0.285714 0.142857 0 55.845 -1.87058e-08 
591 1 0.321429 0.178571 0 55.845 4.52115e-08 
592 1 0.357143 0.214286 0 55.845 1.31817e-07 
598 1 0.357143 0.142857 0 55.845 2.33733e-07 
319 1 0.392926 0.214299 0.209984 55.845 5.35647e-07 
321 1 0.428606 0.250007 0.209892 55.845 2.84315e-07 
331 1 0.392923 0.142912 0.209929 55.845 -8.85638e-09 
333 1 0.428566 0.178541 0.209866 55.845 -1.59191e-07 
335 1 0.464346 0.214252 0.209881 55.845 4.49399e-07 
345 1 0.464239 0.14284 0.209721 55.845 -3.55004e-08 
606 1 0.464286 0.178571 0 55.845 3.62688e-07 
421 1 0.392817 0.214274 0.126439 55.845 -1.74956e-07 
422 1 0.392864 0.250058 0.168277 55.845 -3.6203e-07 
423 1 0.428584 0.249972 0.126409 55.845 3.56089e-07 
433 1 0.392899 0.142879 0.126345 55.845 -3.42877e-07 
434 1 0.39288 0.178603 0.168229 55.845 1.66216e-08 
435 1 0.428605 0.178584 0.126225 55.845 -3.72242e-07 
436 1 0.428649 0.214258 0.168301 55.845 5.06811e-08 
437 1 0.464313 0.214321 0.126437 55.845 4.68776e-07 
605 1 0.428571 0.142857 0 55.845 3.36005e-08 
446 1 0.428609 0.142904 0.168112 55.845 -2.88456e-07 
447 1 0.464312 0.142868 0.126441 55.845 1.93111e-07 
448 1 0.464286 0.178577 0.168208 55.845 9.71838e-08 
523 1 0.392857 0.214286 0.0416667 55.845 -2.28188e-07 
524 1 0.392884 0.250039 0.0837111 55.845 2.03907e-09 
525 1 0.428571 0.25 0.0416667 55.845 4.80653e-07 
535 1 0.392857 0.142857 0.0416667 55.845 -4.36887e-07 
536 1 0.392876 0.178569 0.0837044 55.845 4.59663e-08 
537 1 0.428571 0.178571 0.0416667 55.845 -6.90306e-08 
538 1 0.428606 0.214312 0.0835825 55.845 4.95271e-07 
539 1 0.464286 0.214286 0.0416667 55.845 3.51826e-07 
548 1 0.428613 0.142834 0.0835564 55.845 -7.19904e-07 
549 1 0.464286 0.142857 0.0416667 55.845 2.27762e-07 
550 1 0.464256 0.178628 0.0836571 55.845 1.1532e-07 
593 1 0.392857 0.25 0 55.845 3.8521e-07 
599 1 0.392857 0.178571 0 55.845 3.95369e-07 
600 1 0.428571 0.214286 0 55.845 2.71859e-07 
3 1 -6.41113e-05 0.107158 0.462116 55.845 -8.45502e-07 
7 1 5.07845e-05 0.0356862 0.462177 55.845 -3.96887e-07 
8 1 0.0357042 0.0713911 0.462139 55.845 -7.90958e-07 
9 1 0.0714014 0.107087 0.462205 55.845 6.5687e-08 
13 1 0.0358544 -8.04666e-05 0.462144 55.845 4.51344e-08 
14 1 0.0714634 0.0357155 0.462162 55.845 -4.7273e-07 
15 1 0.107197 0.0714398 0.462112 55.845 1.55388e-08 
20 1 0.107172 1.44884e-05 0.462177 55.845 -5.66606e-07 
55 1 5.25833e-05 0.107072 0.378245 55.845 -7.90249e-08 
63 1 5.78611e-05 0.0357113 0.378184 55.845 1.91812e-07 
64 1 -2.75642e-06 0.0714164 0.420309 55.845 3.84952e-07 
65 1 0.035763 0.0714509 0.378127 55.845 -3.24431e-07 
66 1 0.0356877 0.10707 0.420452 55.845 -2.86552e-07 
67 1 0.071425 0.107117 0.378277 55.845 4.56943e-07 
74 1 1.83423e-05 -4.85832e-06 0.420334 55.845 -3.89061e-07 
75 1 0.035697 -2.60124e-05 0.378222 55.845 5.31946e-07 
76 1 0.0357586 0.0356665 0.42027 55.845 7.92625e-08 
77 1 0.071442 0.0357165 0.378219 55.845 -2.3807e-07 
78 1 0.0714035 0.0713728 0.420228 55.845 8.61248e-08 
79 1 0.107146 0.0713961 0.378228 55.845 -8.13266e-09 
80 1 0.107132 0.107132 0.420307 55.845 -6.57968e-07 
88 1 0.0714183 -2.86494e-05 0.42022 55.845 1.94534e-07 
89 1 0.107169 -1.26498e-05 0.378193 55.845 2.56824e-07 
90 1 0.107138 0.0356706 0.420242 55.845 -9.33818e-08 
157 1 1.98182e-05 0.107134 0.294082 55.845 -6.99147e-07 
165 1 -3.04091e-05 0.0357437 0.293993 55.845 -5.79353e-07 
166 1 -2.75763e-05 0.0714481 0.336219 55.845 6.83949e-07 
167 1 0.035709 0.0714218 0.293967 55.845 -7.03872e-07 
168 1 0.0357648 0.107209 0.336229 55.845 4.57059e-07 
169 1 0.0714329 0.107174 0.294062 55.845 -2.21472e-07 
176 1 1.39947e-05 2.26573e-05 0.336171 55.845 -9.10613e-08 
177 1 0.0356635 8.13688e-06 0.294043 55.845 -5.99396e-07 
178 1 0.035668 0.0357078 0.336053 55.845 6.76993e-07 
179 1 0.0714884 0.0357339 0.294076 55.845 -5.50662e-07 
180 1 0.071376 0.0714009 0.336078 55.845 5.25232e-07 
181 1 0.107125 0.0714499 0.294132 55.845 -5.55834e-07 
182 1 0.1071 0.107128 0.33621 55.845 -2.10103e-07 
190 1 0.0714102 4.63689e-05 0.336154 55.845 2.20958e-07 
191 1 0.107147 1.78675e-05 0.294029 55.845 -5.45932e-07 
192 1 0.107162 0.0356954 0.33602 55.845 2.28179e-07 
268 1 -3.95244e-06 0.0714352 0.251667 55.845 2.72599e-07 
270 1 0.0356657 0.10712 0.251702 55.845 3.5544e-07 
278 1 -6.67257e-05 2.88543e-05 0.251641 55.845 1.14147e-06 
280 1 0.035718 0.035679 0.25161 55.845 4.56401e-07 
282 1 0.0714109 0.0714208 0.251713 55.845 1.61039e-07 
284 1 0.107111 0.107176 0.251747 55.845 -1.27872e-07 
292 1 0.0713995 -2.88507e-05 0.251706 55.845 8.60757e-07 
294 1 0.107214 0.0356903 0.251575 55.845 -6.80902e-08 
16 1 0.142923 0.10715 0.462296 55.845 7.02954e-07 
21 1 0.142786 0.0356752 0.462156 55.845 -1.861e-07 
22 1 0.178544 0.0714914 0.462074 55.845 3.06795e-08 
23 1 0.214245 0.107204 0.462167 55.845 1.24101e-07 
27 1 0.178536 5.77929e-05 0.462029 55.845 -2.37238e-08 
28 1 0.214358 0.0357667 0.462021 55.845 1.14094e-07 
29 1 0.249998 0.0714726 0.46207 55.845 -2.28015e-07 
81 1 0.142846 0.107137 0.378315 55.845 3.49182e-07 
91 1 0.142834 0.0357446 0.378181 55.845 -2.42177e-07 
92 1 0.142874 0.0713904 0.420285 55.845 -3.39718e-08 
93 1 0.178533 0.0714683 0.378124 55.845 -4.00881e-07 
94 1 0.178572 0.107209 0.420245 55.845 -3.61981e-07 
95 1 0.214273 0.107193 0.378161 55.845 -2.2418e-07 
102 1 0.142812 2.22812e-05 0.420291 55.845 -1.26057e-07 
103 1 0.17856 6.76563e-05 0.378274 55.845 2.8728e-07 
104 1 0.17854 0.0357517 0.420255 55.845 -4.3165e-07 
105 1 0.214293 0.0357379 0.378299 55.845 -2.25991e-07 
106 1 0.214284 0.071478 0.420308 55.845 3.16552e-07 
107 1 0.250075 0.071448 0.378232 55.845 -3.2152e-07 
108 1 0.249905 0.107157 0.420308 55.845 9.36547e-08 
118 1 0.214284 9.21537e-06 0.420302 55.845 -4.73078e-07 
120 1 0.250012 0.0356431 0.42032 55.845 -2.30223e-07 
183 1 0.142846 0.107219 0.294208 55.845 -2.03775e-07 
193 1 0.142902 0.0356977 0.294073 55.845 -6.5816e-08 
194 1 0.142881 0.0714078 0.336099 55.845 2.67858e-07 
195 1 0.178646 0.0715333 0.294091 55.845 -6.09653e-07 
196 1 0.178497 0.107204 0.336264 55.845 3.15274e-07 
197 1 0.214236 0.107125 0.294173 55.845 -5.17719e-07 
204 1 0.142785 1.24362e-05 0.336242 55.845 -2.69383e-07 
205 1 0.178543 -3.34716e-05 0.294062 55.845 -5.51406e-07 
206 1 0.178566 0.0357677 0.336144 55.845 8.94927e-07 
207 1 0.214344 0.035703 0.294086 55.845 5.92067e-08 
208 1 0.214317 0.0714429 0.336153 55.845 8.16325e-07 
209 1 0.250063 0.0713914 0.294138 55.845 -3.69374e-07 
210 1 0.250076 0.107192 0.336218 55.845 2.49918e-07 
220 1 0.214197 3.75351e-05 0.336121 55.845 2.67868e-07 
222 1 0.250017 0.0356508 0.336204 55.845 5.53419e-07 
296 1 0.142911 0.0714242 0.251656 55.845 -2.07169e-07 
298 1 0.178563 0.107093 0.251689 55.845 -9.8474e-08 
306 1 0.142873 9.56401e-06 0.251657 55.845 6.15638e-07 
308 1 0.178552 0.0357415 0.25171 55.845 1.71744e-08 
310 1 0.214318 0.071442 0.25169 55.845 3.5529e-08 
312 1 0.249998 0.107196 0.251611 55.845 -3.02208e-07 
322 1 0.214274 -4.66451e-05 0.251686 55.845 6.28048e-07 
324 1 0.250052 0.0357138 0.251664 55.845 -3.84056e-07 
30 1 0.285695 0.107179 0.462075 55.845 -2.34576e-07 
35 1 0.250035 -1.06268e-05 0.462061 55.845 -2.50884e-07 
36 1 0.285679 0.0357013 0.462183 55.845 4.4548e-08 
37 1 0.32144 0.0714473 0.462154 55.845 3.44722e-07 
38 1 0.357101 0.107156 0.46222 55.845 -3.40013e-08 
42 1 0.321361 3.60575e-05 0.46214 55.845 2.98039e-07 
43 1 0.357077 0.0357686 0.462225 55.845 3.35069e-07 
109 1 0.285755 0.107136 0.378244 55.845 -4.57801e-08 
119 1 0.249961 -3.33555e-05 0.378217 55.845 7.8772e-07 
121 1 0.285708 0.0357428 0.378227 55.845 4.46849e-07 
122 1 0.285741 0.0714137 0.420313 55.845 1.34449e-07 
123 1 0.321429 0.0714682 0.378135 55.845 2.00257e-07 
124 1 0.3214 0.10718 0.420436 55.845 -3.37911e-07 
125 1 0.357077 0.107211 0.378194 55.845 8.12029e-08 
133 1 0.321406 5.05888e-05 0.378208 55.845 8.82108e-07 
134 1 0.321482 0.0357685 0.420362 55.845 -5.9653e-07 
135 1 0.35716 0.03579 0.378329 55.845 4.53013e-07 
136 1 0.357154 0.0715214 0.420251 55.845 -3.72501e-07 
211 1 0.285668 0.107203 0.294079 55.845 -5.05728e-08 
221 1 0.250007 -5.62837e-05 0.294061 55.845 1.77325e-07 
223 1 0.285752 0.0356787 0.294126 55.845 2.13684e-07 
224 1 0.285719 0.071444 0.336121 55.845 3.62886e-07 
225 1 0.321371 0.0714838 0.294073 55.845 -1.18823e-07 
226 1 0.321401 0.107169 0.336121 55.845 9.50335e-08 
227 1 0.357191 0.107207 0.294093 55.845 2.54298e-07 
235 1 0.321425 2.61242e-05 0.294247 55.845 -1.2243e-07 
236 1 0.321466 0.0357769 0.336255 55.845 1.73063e-07 
237 1 0.357127 0.0357201 0.294127 55.845 6.00521e-07 
238 1 0.357193 0.0714534 0.336147 55.845 3.90277e-07 
326 1 0.285755 0.0713708 0.251752 55.845 -3.21405e-07 
328 1 0.321421 0.107151 0.251775 55.845 3.74576e-08 
338 1 0.321424 0.0356486 0.251633 55.845 1.65012e-08 
340 1 0.357198 0.0713515 0.251766 55.845 -1.91287e-07 
44 1 0.392809 0.0714603 0.462245 55.845 6.15713e-08 
45 1 0.428532 0.107113 0.462068 55.845 1.03907e-07 
47 1 0.392801 5.32752e-05 0.462143 55.845 3.11605e-07 
48 1 0.428536 0.0357116 0.462204 55.845 -1.63568e-07 
49 1 0.464158 0.0713904 0.462115 55.845 3.29516e-07 
50 1 0.464306 -3.7821e-05 0.462116 55.845 1.36999e-07 
137 1 0.392827 0.0714753 0.378261 55.845 1.46359e-07 
138 1 0.392756 0.107208 0.420377 55.845 6.19477e-10 
139 1 0.428518 0.107051 0.378277 55.845 3.89299e-07 
144 1 0.392848 2.95591e-05 0.378208 55.845 4.1335e-07 
145 1 0.392796 0.0357908 0.420374 55.845 -8.90182e-07 
146 1 0.428562 0.0357497 0.378206 55.845 6.90024e-07 
147 1 0.428497 0.0713861 0.420314 55.845 -1.08764e-06 
148 1 0.464242 0.0713569 0.378226 55.845 3.13854e-07 
149 1 0.464308 0.107059 0.420277 55.845 -4.6379e-07 
150 1 0.428497 2.04808e-05 0.42026 55.845 -6.46024e-07 
151 1 0.464305 -1.50356e-05 0.378227 55.845 6.78013e-07 
152 1 0.464268 0.0356483 0.420263 55.845 -5.68064e-07 
239 1 0.392879 0.0714224 0.294169 55.845 4.45014e-07 
240 1 0.392853 0.107123 0.336251 55.845 7.44705e-09 
241 1 0.42853 0.107197 0.294189 55.845 2.88432e-07 
246 1 0.39286 4.88663e-05 0.294107 55.845 7.20385e-07 
247 1 0.392844 0.035715 0.336206 55.845 -4.27636e-07 
248 1 0.428539 0.0356482 0.294205 55.845 5.05057e-07 
249 1 0.428637 0.0714579 0.336245 55.845 -2.23684e-07 
250 1 0.464232 0.0713533 0.294146 55.845 1.71815e-07 
251 1 0.464337 0.107144 0.33635 55.845 -2.83683e-07 
252 1 0.42855 -5.56387e-05 0.336234 55.845 -4.35701e-07 
253 1 0.464302 -2.52551e-05 0.294175 55.845 1.74471e-07 
254 1 0.464298 0.0356389 0.336135 55.845 -4.01831e-07 
342 1 0.392926 0.10717 0.251647 55.845 -3.25686e-07 
349 1 0.392841 0.0357481 0.251667 55.845 -3.18798e-07 
351 1 0.428564 0.0713818 0.2518 55.845 -2.85943e-07 
353 1 0.464249 0.10711 0.25171 55.845 -1.74523e-07 
354 1 0.428551 -3.98546e-05 0.251721 55.845 -4.32043e-08 
356 1 0.464242 0.0356393 0.251765 55.845 3.75438e-08 
1 1 0.000104291 0.178548 0.462279 55.845 -9.65211e-07 
2 1 0.0356864 0.214348 0.462287 55.845 -2.50217e-08 
4 1 0.0356723 0.142836 0.462193 55.845 -2.13384e-07 
5 1 0.0714099 0.178547 0.462149 55.845 8.64418e-08 
6 1 0.107146 0.214263 0.462043 55.845 -2.16158e-07 
10 1 0.107184 0.142839 0.46219 55.845 7.9358e-07 
51 1 8.98433e-05 0.178602 0.37834 55.845 -2.16901e-08 
52 1 1.9914e-05 0.214261 0.420517 55.845 3.98183e-07 
53 1 0.0356309 0.214286 0.378357 55.845 -3.26752e-07 
54 1 0.0357575 0.249974 0.420382 55.845 -4.83449e-07 
56 1 5.39132e-05 0.14285 0.42034 55.845 2.29586e-08 
57 1 0.0357429 0.142842 0.378296 55.845 4.83499e-07 
58 1 0.0358339 0.178519 0.420495 55.845 5.31202e-08 
59 1 0.0714424 0.178596 0.37824 55.845 4.58882e-07 
60 1 0.0713879 0.214318 0.420269 55.845 -1.88883e-07 
61 1 0.107132 0.21429 0.378248 55.845 -4.17672e-07 
62 1 0.107236 0.250037 0.420214 55.845 -6.68541e-07 
68 1 0.0714753 0.142805 0.420308 55.845 -2.75047e-07 
69 1 0.107131 0.142823 0.378189 55.845 1.12278e-06 
70 1 0.107126 0.178498 0.420205 55.845 -4.76489e-07 
153 1 2.39124e-05 0.178567 0.294263 55.845 -5.49494e-07 
154 1 -2.44209e-05 0.214285 0.336235 55.845 4.59921e-07 
155 1 0.0357246 0.214241 0.294236 55.845 -2.78264e-08 
156 1 0.0357092 0.250038 0.336255 55.845 1.11101e-07 
158 1 5.65642e-05 0.14283 0.336309 55.845 1.28309e-07 
159 1 0.0357217 0.142829 0.294105 55.845 -5.23595e-07 
160 1 0.0357655 0.178521 0.336361 55.845 6.79436e-07 
161 1 0.0714437 0.178537 0.294129 55.845 -3.76574e-09 
162 1 0.0714375 0.214306 0.336244 55.845 4.86419e-07 
163 1 0.107157 0.214304 0.294105 55.845 2.65911e-08 
164 1 0.107166 0.25005 0.336087 55.845 2.95729e-07 
170 1 0.0714167 0.142877 0.336183 55.845 -8.4907e-08 
171 1 0.107115 0.142826 0.294134 55.845 8.60647e-08 
172 1 0.107197 0.17863 0.336128 55.845 1.07637e-07 
256 1 3.24097e-05 0.214324 0.251849 55.845 -1.98802e-07 
258 1 0.0357413 0.24998 0.251789 55.845 -5.23926e-08 
260 1 -4.38555e-05 0.142842 0.251685 55.845 4.41377e-07 
262 1 0.0357068 0.178592 0.251717 55.845 -2.62498e-07 
264 1 0.0714336 0.21428 0.251719 55.845 -1.89414e-07 
266 1 0.107131 0.249999 0.251667 55.845 2.42998e-07 
272 1 0.0714194 0.142883 0.251616 55.845 5.30639e-07 
274 1 0.107087 0.178624 0.251708 55.845 -4.23142e-08 
11 1 0.142845 0.178535 0.462045 55.845 8.28028e-08 
12 1 0.178564 0.214226 0.462127 55.845 -3.13288e-08 
17 1 0.178608 0.142839 0.462184 55.845 1.9649e-07 
18 1 0.214303 0.178602 0.462165 55.845 3.32328e-07 
19 1 0.250051 0.214335 0.462263 55.845 2.71829e-07 
24 1 0.249998 0.142794 0.462187 55.845 -2.45804e-07 
71 1 0.142851 0.178548 0.378148 55.845 1.81382e-08 
72 1 0.142881 0.21427 0.420324 55.845 2.61267e-07 
73 1 0.178535 0.214254 0.378163 55.845 -2.94632e-07 
82 1 0.142902 0.142782 0.42033 55.845 -4.87999e-07 
83 1 0.178552 0.1429 0.378038 55.845 5.6577e-07 
84 1 0.178533 0.178502 0.420342 55.845 -1.90721e-07 
85 1 0.2143 0.178528 0.378214 55.845 -3.73216e-08 
86 1 0.214262 0.214223 0.420302 55.845 2.87343e-07 
87 1 0.249973 0.214284 0.378349 55.845 1.37909e-07 
96 1 0.214269 0.142891 0.420332 55.845 1.43003e-07 
97 1 0.249989 0.142861 0.378268 55.845 2.73758e-07 
98 1 0.250031 0.178528 0.420399 55.845 -2.93544e-07 
173 1 0.142892 0.178631 0.29403 55.845 3.44915e-07 
174 1 0.142856 0.214336 0.336092 55.845 2.90902e-07 
175 1 0.178554 0.214279 0.294117 55.845 -5.01602e-07 
184 1 0.142837 0.142923 0.336128 55.845 -3.93788e-07 
185 1 0.178591 0.142901 0.294029 55.845 -1.68817e-07 
186 1 0.178557 0.17858 0.336194 55.845 5.566e-07 
187 1 0.2143 0.178578 0.294091 55.845 -1.26536e-07 
188 1 0.21427 0.214303 0.336214 55.845 2.05647e-07 
189 1 0.249991 0.214347 0.294206 55.845 3.39208e-07 
198 1 0.214232 0.142903 0.336181 55.845 -2.73455e-07 
199 1 0.249917 0.142872 0.294089 55.845 -4.41099e-07 
200 1 0.249983 0.178606 0.336177 55.845 -1.30976e-07 
276 1 0.142843 0.214335 0.251688 55.845 1.64732e-08 
286 1 0.142821 0.14286 0.251739 55.845 4.81545e-07 
288 1 0.17853 0.178578 0.251743 55.845 -4.42486e-08 
290 1 0.214295 0.21433 0.251611 55.845 -8.07393e-08 
300 1 0.214288 0.142815 0.25164 55.845 3.58109e-07 
302 1 0.249939 0.178603 0.251595 55.845 -1.28151e-07 
25 1 0.285726 0.178608 0.462218 55.845 3.53935e-07 
26 1 0.321412 0.214292 0.46228 55.845 9.41902e-07 
31 1 0.321398 0.14287 0.4622 55.845 3.76209e-08 
32 1 0.357184 0.178573 0.462174 55.845 5.2885e-08 
99 1 0.285699 0.178605 0.37818 55.845 -2.04611e-07 
100 1 0.285707 0.21427 0.420275 55.845 -6.37863e-07 
101 1 0.321433 0.214294 0.37826 55.845 1.78134e-07 
110 1 0.285675 0.142879 0.420357 55.845 -3.03479e-07 
111 1 0.321381 0.142837 0.378181 55.845 4.71975e-07 
112 1 0.321447 0.178603 0.420292 55.845 -7.25137e-07 
113 1 0.357126 0.178586 0.378245 55.845 2.48952e-07 
114 1 0.357177 0.214346 0.420319 55.845 3.13501e-07 
126 1 0.357113 0.142811 0.420339 55.845 -1.88189e-07 
201 1 0.285671 0.178687 0.294129 55.845 1.6106e-07 
202 1 0.285701 0.214263 0.336203 55.845 -4.08753e-07 
203 1 0.321414 0.214258 0.294028 55.845 -1.16606e-10 
212 1 0.285675 0.142886 0.336154 55.845 -6.22806e-07 
213 1 0.321439 0.142846 0.294203 55.845 4.61137e-08 
214 1 0.321458 0.17863 0.336043 55.845 -3.29963e-07 
215 1 0.357207 0.178659 0.294123 55.845 -2.17763e-08 
216 1 0.357153 0.214268 0.336181 55.845 5.71348e-07 