ITEM: TIMESTEP
7200
ITEM: NUMBER OF ATOMS
5880
ITEM: BOX BOUNDS pp pp ff
-27.9714 27.9714
-27.9714 27.9714
0 34.092
ITEM: ATOMS id type xs ys zs mass q 
259 1 4.24194e-05 0.107198 0.209213 55.845 4.77974e-07 
267 1 -3.11784e-05 0.0357516 0.209065 55.845 3.68903e-07 
269 1 0.0357538 0.0715033 0.209207 55.845 3.52792e-07 
271 1 0.0714823 0.107112 0.209201 55.845 1.819e-07 
279 1 0.0358027 7.84972e-05 0.209124 55.845 1.72151e-07 
281 1 0.0713804 0.0357134 0.209279 55.845 2.05416e-07 
283 1 0.107261 0.0713729 0.209375 55.845 8.29366e-08 
293 1 0.107148 -7.64668e-06 0.209243 55.845 2.67616e-07 
361 1 -5.03079e-05 0.107113 0.124293 55.845 -2.9615e-07 
369 1 1.06305e-05 0.0356863 0.12419 55.845 -3.00404e-07 
370 1 7.73865e-05 0.0714268 0.166593 55.845 -5.44083e-08 
371 1 0.0357657 0.0714708 0.124069 55.845 -4.13884e-07 
372 1 0.0357488 0.107118 0.166678 55.845 7.20418e-08 
373 1 0.0714645 0.107116 0.124209 55.845 -4.27207e-07 
380 1 0.000123766 -8.11282e-05 0.166548 55.845 4.32091e-09 
381 1 0.0357564 -6.17876e-05 0.124057 55.845 -2.89215e-07 
382 1 0.0358072 0.0357765 0.166551 55.845 8.64161e-08 
383 1 0.0714272 0.0357009 0.124143 55.845 -4.46872e-07 
384 1 0.0715008 0.0714114 0.166562 55.845 8.90066e-08 
385 1 0.107166 0.0713971 0.124383 55.845 -4.96334e-07 
386 1 0.107281 0.107142 0.16672 55.845 2.17549e-07 
394 1 0.0714398 -4.8211e-05 0.16654 55.845 -1.3478e-08 
395 1 0.107183 -4.26837e-07 0.124113 55.845 -3.6632e-07 
396 1 0.107032 0.0356858 0.166664 55.845 1.01775e-07 
463 1 0 0.107143 0.0416667 55.845 -6.05315e-07 
471 1 0 0.0357143 0.0416667 55.845 -4.6232e-07 
472 1 -4.28585e-05 0.0714297 0.081931 55.845 4.52505e-07 
473 1 0.0357143 0.0714286 0.0416667 55.845 -6.60672e-07 
474 1 0.0356925 0.107148 0.0818861 55.845 6.5415e-07 
475 1 0.0714286 0.107143 0.0416667 55.845 -6.09058e-07 
482 1 8.39853e-06 8.57711e-05 0.0819317 55.845 5.90811e-07 
483 1 0.0357143 0 0.0416667 55.845 -4.02459e-07 
484 1 0.035729 0.0357691 0.082079 55.845 5.72676e-07 
485 1 0.0714286 0.0357143 0.0416667 55.845 -5.6971e-07 
486 1 0.0714084 0.0714452 0.0819746 55.845 8.8605e-07 
487 1 0.107143 0.0714286 0.0416667 55.845 -5.88405e-07 
488 1 0.107076 0.1071 0.0819642 55.845 8.12788e-07 
496 1 0.0714398 -8.82912e-05 0.0819702 55.845 5.42954e-07 
497 1 0.107143 0 0.0416667 55.845 -5.83813e-07 
498 1 0.10711 0.0357436 0.0819274 55.845 6.4369e-07 
567 1 0 0.0714286 0 55.845 -8.09101e-08 
568 1 0.0357143 0.107143 0 55.845 1.11916e-07 
572 1 0 0 0 55.845 2.0376e-07 
573 1 0.0357143 0.0357143 0 55.845 8.33055e-08 
574 1 0.0714286 0.0714286 0 55.845 1.74194e-07 
575 1 0.107143 0.107143 0 55.845 2.35298e-07 
579 1 0.0714286 0 0 55.845 1.69114e-08 
580 1 0.107143 0.0357143 0 55.845 1.35081e-07 
285 1 0.142859 0.107227 0.20918 55.845 1.68451e-07 
295 1 0.142829 0.0356821 0.209101 55.845 7.70665e-08 
297 1 0.178552 0.0714905 0.209257 55.845 1.67784e-07 
299 1 0.214296 0.10715 0.208963 55.845 1.68881e-07 
307 1 0.17859 4.72974e-05 0.209279 55.845 1.95222e-07 
309 1 0.214308 0.0357277 0.209247 55.845 1.31708e-07 
311 1 0.250071 0.0714893 0.208921 55.845 1.48188e-07 
387 1 0.142814 0.107091 0.12423 55.845 -4.65404e-07 
397 1 0.142825 0.0358379 0.124335 55.845 -4.56508e-07 
398 1 0.142795 0.0715016 0.166651 55.845 1.58229e-07 
399 1 0.178566 0.0715332 0.124236 55.845 -4.10026e-07 
400 1 0.178613 0.106972 0.166664 55.845 1.70137e-07 
401 1 0.214248 0.107195 0.124196 55.845 -2.23221e-07 
408 1 0.142894 3.2759e-05 0.166641 55.845 7.67267e-09 
409 1 0.17864 0.00011123 0.124309 55.845 -3.73131e-07 
410 1 0.178524 0.0357742 0.166916 55.845 2.02486e-07 
411 1 0.214155 0.0357921 0.124399 55.845 -2.29604e-07 
412 1 0.214257 0.0714744 0.166717 55.845 1.23302e-07 
413 1 0.24988 0.0714014 0.124319 55.845 -3.07105e-07 
414 1 0.250082 0.107185 0.166503 55.845 1.43721e-07 
424 1 0.21426 1.0306e-05 0.166594 55.845 3.70334e-08 
426 1 0.250013 0.0356248 0.166634 55.845 1.36316e-07 
489 1 0.142857 0.107143 0.0416667 55.845 -5.71118e-07 
499 1 0.142857 0.0357143 0.0416667 55.845 -5.28747e-07 
500 1 0.142927 0.0714681 0.0819524 55.845 8.66009e-07 
501 1 0.178571 0.0714286 0.0416667 55.845 -4.95894e-07 
502 1 0.178548 0.10719 0.0820021 55.845 5.16383e-07 
503 1 0.214286 0.107143 0.0416667 55.845 -2.87341e-07 
510 1 0.142825 -1.7792e-05 0.0820328 55.845 5.18871e-07 
511 1 0.178571 0 0.0416667 55.845 -4.28767e-07 
512 1 0.178619 0.0357373 0.0820823 55.845 6.27673e-07 
513 1 0.214286 0.0357143 0.0416667 55.845 -3.72225e-07 
514 1 0.214252 0.0713811 0.0820594 55.845 5.74186e-07 
515 1 0.25 0.0714286 0.0416667 55.845 -3.5411e-07 
516 1 0.25004 0.107121 0.0819367 55.845 4.2986e-07 
526 1 0.214301 6.91945e-05 0.0821347 55.845 5.24107e-07 
528 1 0.250006 0.0357127 0.0821108 55.845 4.72743e-07 
581 1 0.142857 0.0714286 0 55.845 1.73226e-07 
582 1 0.178571 0.107143 0 55.845 1.11117e-07 
586 1 0.142857 0 0 55.845 -4.75916e-08 
587 1 0.178571 0.0357143 0 55.845 1.08082e-07 
588 1 0.214286 0.0714286 0 55.845 7.26905e-08 
589 1 0.25 0.107143 0 55.845 7.86419e-08 
594 1 0.214286 0 0 55.845 3.22151e-08 
595 1 0.25 0.0357143 0 55.845 2.7555e-08 
313 1 0.285752 0.107158 0.208886 55.845 -1.92923e-07 
323 1 0.249949 -7.58076e-05 0.209247 55.845 1.39356e-07 
325 1 0.285747 0.0357136 0.209211 55.845 3.41426e-09 
327 1 0.32151 0.0714799 0.209185 55.845 -1.41539e-07 
329 1 0.357134 0.107289 0.209109 55.845 -3.61204e-07 
337 1 0.321322 3.63716e-06 0.209125 55.845 -6.85933e-08 
339 1 0.357097 0.0357915 0.209117 55.845 -2.04704e-07 
415 1 0.285626 0.107126 0.124123 55.845 -4.49611e-07 
425 1 0.249925 3.27509e-05 0.124208 55.845 -1.71712e-07 
427 1 0.285652 0.0357519 0.124227 55.845 -3.17873e-07 
428 1 0.285789 0.0714422 0.166529 55.845 2.11218e-07 
429 1 0.32145 0.0714371 0.124178 55.845 -6.42044e-07 
430 1 0.321468 0.107122 0.166446 55.845 3.82718e-07 
431 1 0.357171 0.107144 0.124075 55.845 -7.38171e-07 
439 1 0.321398 -1.17431e-05 0.124284 55.845 -4.41615e-07 
440 1 0.321363 0.0358068 0.16653 55.845 3.2142e-07 
441 1 0.35713 0.035801 0.12426 55.845 -5.74187e-07 
442 1 0.357106 0.0715383 0.166664 55.845 4.75352e-07 
517 1 0.285714 0.107143 0.0416667 55.845 -3.83943e-07 
527 1 0.25 0 0.0416667 55.845 -2.5574e-07 
529 1 0.285714 0.0357143 0.0416667 55.845 -4.45258e-07 
530 1 0.285673 0.0714024 0.0820413 55.845 5.44068e-07 
531 1 0.321429 0.0714286 0.0416667 55.845 -6.55456e-07 
532 1 0.321347 0.107057 0.0819187 55.845 7.02995e-07 
533 1 0.357143 0.107143 0.0416667 55.845 -6.66689e-07 
603 1 0.357143 0.0714286 0 55.845 1.21655e-07 
541 1 0.321429 0 0.0416667 55.845 -4.62043e-07 
542 1 0.321391 0.0357121 0.0820989 55.845 7.33272e-07 
543 1 0.357143 0.0357143 0.0416667 55.845 -5.12386e-07 
544 1 0.357141 0.0713622 0.0820877 55.845 7.53229e-07 
602 1 0.321429 0.0357143 0 55.845 7.90558e-08 
596 1 0.285714 0.0714286 0 55.845 4.93728e-08 
597 1 0.321429 0.107143 0 55.845 5.26363e-08 
612 1 0.464286 0.0357143 0 55.845 -6.46818e-08 
611 1 0.428571 0 0 55.845 -2.93446e-08 
610 1 0.464286 0.107143 0 55.845 1.58993e-09 
609 1 0.428571 0.0714286 0 55.845 1.29221e-07 
608 1 0.392857 0.0357143 0 55.845 6.21022e-08 
341 1 0.392849 0.0713541 0.209315 55.845 -2.79048e-07 
343 1 0.428526 0.107157 0.209242 55.845 -3.89464e-07 
348 1 0.392853 -9.17581e-07 0.209122 55.845 -1.05808e-07 
350 1 0.428654 0.0356225 0.209297 55.845 -1.44106e-07 
352 1 0.464306 0.0714074 0.209242 55.845 -3.35852e-07 
355 1 0.46436 -2.11835e-05 0.209217 55.845 -4.83724e-08 
443 1 0.392921 0.0714688 0.124324 55.845 -4.4407e-07 
444 1 0.392921 0.107183 0.166656 55.845 4.7405e-07 
445 1 0.428614 0.107123 0.124247 55.845 -3.70238e-07 
604 1 0.392857 0.107143 0 55.845 3.53322e-08 
450 1 0.392832 7.62201e-05 0.124356 55.845 -5.46383e-07 
451 1 0.392776 0.0357896 0.166742 55.845 4.31146e-07 
452 1 0.428577 0.0358149 0.124374 55.845 -4.12789e-07 
453 1 0.428629 0.0714144 0.166778 55.845 4.40506e-07 
454 1 0.464225 0.0714338 0.12429 55.845 -2.38107e-07 
455 1 0.464238 0.107118 0.166791 55.845 3.96945e-07 
456 1 0.428458 9.09796e-05 0.166705 55.845 3.932e-07 
457 1 0.464339 1.33012e-05 0.124347 55.845 -3.99711e-07 
458 1 0.464342 0.0356917 0.166603 55.845 3.57574e-07 
545 1 0.392857 0.0714286 0.0416667 55.845 -3.60078e-07 
546 1 0.392926 0.107111 0.082073 55.845 6.79076e-07 
547 1 0.428571 0.107143 0.0416667 55.845 -2.38747e-07 
552 1 0.392857 0 0.0416667 55.845 -4.44815e-07 
553 1 0.392841 0.0357849 0.0820629 55.845 6.65076e-07 
554 1 0.428571 0.0357143 0.0416667 55.845 -2.30084e-07 
555 1 0.428654 0.0714794 0.0819823 55.845 5.32361e-07 
556 1 0.464286 0.0714286 0.0416667 55.845 -1.31507e-07 
557 1 0.464275 0.107188 0.0821071 55.845 4.8242e-07 
558 1 0.428692 1.98231e-05 0.0821885 55.845 3.37563e-07 
559 1 0.464286 0 0.0416667 55.845 -3.44467e-07 
560 1 0.464322 0.0357189 0.0820081 55.845 3.66659e-07 
255 1 -5.90963e-06 0.178533 0.209313 55.845 2.20071e-07 
257 1 0.0357525 0.214226 0.209166 55.845 4.42379e-07 
261 1 0.0357025 0.142809 0.209105 55.845 2.3227e-07 
263 1 0.0714275 0.17855 0.209175 55.845 4.15562e-07 
265 1 0.107086 0.214349 0.208929 55.845 5.56348e-07 
273 1 0.107245 0.142802 0.209202 55.845 3.67383e-07 
357 1 3.41413e-06 0.178514 0.124032 55.845 -2.27128e-07 
358 1 -9.457e-06 0.214263 0.166665 55.845 -1.42631e-07 
359 1 0.0357007 0.214154 0.124072 55.845 -2.81159e-07 
360 1 0.035749 0.249838 0.166546 55.845 -3.13721e-07 
362 1 -3.19135e-06 0.142883 0.166766 55.845 -4.50261e-08 
363 1 0.0358122 0.142824 0.124338 55.845 -3.09402e-07 
364 1 0.0356943 0.178444 0.166688 55.845 -4.77091e-08 
365 1 0.0714067 0.178512 0.124133 55.845 -3.52141e-07 
366 1 0.071349 0.214202 0.16658 55.845 -2.92759e-07 
367 1 0.107135 0.214317 0.124255 55.845 -3.16254e-07 
368 1 0.107166 0.249976 0.166548 55.845 -3.11014e-07 
374 1 0.0714974 0.142734 0.166814 55.845 2.12316e-08 
375 1 0.107116 0.142724 0.12431 55.845 -4.45218e-07 
376 1 0.107061 0.178558 0.166642 55.845 -9.28626e-08 
459 1 0 0.178571 0.0416667 55.845 -3.2593e-07 
460 1 -0.000115673 0.214385 0.0819368 55.845 4.97398e-07 
461 1 0.0357143 0.214286 0.0416667 55.845 -6.15315e-07 
462 1 0.0357868 0.249953 0.0820271 55.845 4.32451e-07 
464 1 0.000121965 0.142761 0.0820025 55.845 6.15573e-07 
465 1 0.0357143 0.142857 0.0416667 55.845 -4.8302e-07 
466 1 0.035703 0.178573 0.0818134 55.845 6.03045e-07 
467 1 0.0714286 0.178571 0.0416667 55.845 -6.89288e-07 
468 1 0.0715279 0.214286 0.0821179 55.845 5.96908e-07 
469 1 0.107143 0.214286 0.0416667 55.845 -6.03948e-07 
470 1 0.10709 0.250058 0.0821452 55.845 7.43787e-07 
476 1 0.0714008 0.142793 0.0821068 55.845 7.79067e-07 
477 1 0.107143 0.142857 0.0416667 55.845 -6.50821e-07 
478 1 0.107097 0.178426 0.0819779 55.845 6.13062e-07 
561 1 0 0.214286 0 55.845 2.32364e-08 
562 1 0.0357143 0.25 0 55.845 -4.41999e-08 
563 1 0 0.142857 0 55.845 6.46267e-08 
564 1 0.0357143 0.178571 0 55.845 1.06592e-07 
565 1 0.0714286 0.214286 0 55.845 7.99541e-08 
566 1 0.107143 0.25 0 55.845 2.84858e-07 
569 1 0.0714286 0.142857 0 55.845 1.44748e-07 
570 1 0.107143 0.178571 0 55.845 1.21767e-07 
275 1 0.14283 0.1787 0.209201 55.845 5.53622e-07 
277 1 0.178655 0.214314 0.209146 55.845 4.51993e-07 
287 1 0.178604 0.142771 0.209183 55.845 4.04778e-07 
289 1 0.214305 0.178527 0.209142 55.845 4.15306e-07 
291 1 0.249927 0.214226 0.208902 55.845 3.73635e-07 
301 1 0.249967 0.142883 0.20907 55.845 9.21622e-08 
377 1 0.142858 0.178569 0.124226 55.845 -2.97008e-07 
378 1 0.142843 0.214257 0.166598 55.845 -2.22498e-07 
379 1 0.178678 0.214248 0.12429 55.845 -1.52257e-07 
388 1 0.142843 0.142925 0.166722 55.845 -2.82356e-09 
389 1 0.178539 0.142779 0.124317 55.845 -2.40028e-07 
390 1 0.178511 0.178571 0.16659 55.845 -2.33732e-07 
391 1 0.214323 0.178606 0.12416 55.845 -9.77482e-08 
392 1 0.214276 0.214284 0.166436 55.845 -1.69337e-07 
393 1 0.249994 0.214275 0.124035 55.845 -2.3497e-07 
402 1 0.214299 0.142806 0.166486 55.845 -1.14135e-07 
403 1 0.249969 0.142789 0.124115 55.845 -1.74384e-07 
404 1 0.250041 0.178513 0.166389 55.845 -1.48136e-07 
479 1 0.142857 0.178571 0.0416667 55.845 -5.82093e-07 
480 1 0.142851 0.214284 0.0820134 55.845 6.4675e-07 
481 1 0.178571 0.214286 0.0416667 55.845 -3.10274e-07 
490 1 0.142914 0.14291 0.0821958 55.845 5.74899e-07 
491 1 0.178571 0.142857 0.0416667 55.845 -4.35384e-07 
492 1 0.178553 0.17857 0.0820586 55.845 3.60403e-07 
493 1 0.214286 0.178571 0.0416667 55.845 -2.43825e-07 
494 1 0.214284 0.214287 0.0819513 55.845 2.11432e-07 
495 1 0.25 0.214286 0.0416667 55.845 -3.67186e-07 
504 1 0.2143 0.142858 0.0818686 55.845 3.31876e-07 
505 1 0.25 0.142857 0.0416667 55.845 -1.05857e-07 
506 1 0.250037 0.178587 0.0818471 55.845 2.76785e-07 
571 1 0.142857 0.214286 0 55.845 2.43062e-07 
576 1 0.142857 0.142857 0 55.845 5.41503e-08 
577 1 0.178571 0.178571 0 55.845 1.28697e-07 
578 1 0.214286 0.214286 0 55.845 2.68875e-08 
583 1 0.214286 0.142857 0 55.845 9.78885e-08 
584 1 0.25 0.178571 0 55.845 7.35527e-08 
303 1 0.285769 0.178644 0.2092 55.845 4.16748e-08 
305 1 0.321509 0.214268 0.209163 55.845 -3.82508e-08 
315 1 0.321483 0.142927 0.209007 55.845 -2.45035e-07 
317 1 0.357263 0.178491 0.209457 55.845 -2.90778e-07 
405 1 0.285772 0.178571 0.124283 55.845 -2.77746e-07 
406 1 0.285846 0.214387 0.166748 55.845 6.01583e-08 
407 1 0.321438 0.214322 0.124207 55.845 -4.06876e-07 
416 1 0.285829 0.142884 0.16651 55.845 1.69492e-07 
417 1 0.321442 0.142851 0.124079 55.845 -6.67992e-07 
418 1 0.321517 0.178588 0.166755 55.845 2.51566e-07 
419 1 0.357149 0.178657 0.124277 55.845 -6.45896e-07 
420 1 0.357321 0.214216 0.166824 55.845 2.79267e-07 
432 1 0.357247 0.142935 0.166435 55.845 4.85821e-07 
507 1 0.285714 0.178571 0.0416667 55.845 -2.6633e-07 
508 1 0.285747 0.214315 0.0820066 55.845 2.67393e-07 
509 1 0.321429 0.214286 0.0416667 55.845 -3.80635e-07 
518 1 0.285717 0.142843 0.0818681 55.845 4.98906e-07 
519 1 0.321429 0.142857 0.0416667 55.845 -5.20012e-07 
520 1 0.321408 0.178508 0.0820587 55.845 6.16268e-07 
521 1 0.357143 0.178571 0.0416667 55.845 -5.26642e-07 
522 1 0.357171 0.214262 0.0821428 55.845 7.22907e-07 
534 1 0.357246 0.142875 0.0820868 55.845 6.66435e-07 
585 1 0.285714 0.214286 0 55.845 -1.22747e-08 
590 1 0.285714 0.142857 0 55.845 1.4724e-07 
591 1 0.321429 0.178571 0 55.845 9.73498e-08 
592 1 0.357143 0.214286 0 55.845 1.58285e-07 
598 1 0.357143 0.142857 0 55.845 -2.36851e-08 
319 1 0.392873 0.214306 0.209252 55.845 -3.99317e-07 
321 1 0.428553 0.249994 0.209176 55.845 -3.70654e-07 
331 1 0.392966 0.143032 0.209142 55.845 -3.60742e-07 
333 1 0.42866 0.178575 0.209311 55.845 -4.00711e-07 
335 1 0.464338 0.214267 0.209195 55.845 -3.37816e-07 
345 1 0.464413 0.142814 0.209204 55.845 -4.932e-07 
606 1 0.464286 0.178571 0 55.845 -1.07819e-07 
421 1 0.392984 0.214383 0.124274 55.845 -4.40043e-07 
422 1 0.392816 0.249969 0.166761 55.845 3.89439e-07 
423 1 0.428582 0.249989 0.12428 55.845 -4.23772e-07 
433 1 0.392971 0.142897 0.124206 55.845 -6.53523e-07 
434 1 0.392813 0.178609 0.166515 55.845 4.46887e-07 
435 1 0.428629 0.178545 0.124314 55.845 -4.93016e-07 
436 1 0.428628 0.214308 0.166742 55.845 4.06003e-07 
437 1 0.464235 0.214279 0.12422 55.845 -4.30087e-07 
605 1 0.428571 0.142857 0 55.845 -6.96638e-08 
446 1 0.428663 0.142884 0.166617 55.845 5.1451e-07 
447 1 0.464364 0.142925 0.124265 55.845 -3.91309e-07 
448 1 0.464278 0.178614 0.166736 55.845 5.55989e-07 
523 1 0.392857 0.214286 0.0416667 55.845 -3.45044e-07 
524 1 0.392879 0.250053 0.0819482 55.845 7.53847e-07 
525 1 0.428571 0.25 0.0416667 55.845 -3.25974e-07 
535 1 0.392857 0.142857 0.0416667 55.845 -5.80884e-07 
536 1 0.392913 0.178656 0.0821227 55.845 5.2524e-07 
537 1 0.428571 0.178571 0.0416667 55.845 -4.09016e-07 
538 1 0.428682 0.214324 0.0819198 55.845 4.82586e-07 
539 1 0.464286 0.214286 0.0416667 55.845 -3.13414e-07 
548 1 0.42859 0.142764 0.0820085 55.845 5.37196e-07 
549 1 0.464286 0.142857 0.0416667 55.845 -1.7588e-07 
550 1 0.464205 0.178566 0.0820188 55.845 3.89009e-07 
593 1 0.392857 0.25 0 55.845 2.64854e-07 
599 1 0.392857 0.178571 0 55.845 -4.05773e-08 
600 1 0.428571 0.214286 0 55.845 -1.10309e-07 
3 1 -3.53639e-05 0.107104 0.458577 55.845 -2.14769e-07 
7 1 4.6802e-05 0.0356786 0.458491 55.845 -1.34023e-07 
8 1 0.035718 0.0714272 0.458374 55.845 -1.23644e-07 
9 1 0.0714573 0.107051 0.458422 55.845 2.10436e-07 
13 1 0.0356637 5.44388e-05 0.458544 55.845 1.77236e-07 
14 1 0.0714286 0.0357784 0.458467 55.845 9.74838e-08 
15 1 0.10723 0.0714572 0.458587 55.845 3.47623e-07 
20 1 0.107089 1.81563e-05 0.458598 55.845 3.54193e-08 
55 1 -3.43581e-05 0.107164 0.374054 55.845 -1.7774e-08 
63 1 1.78369e-05 0.0357898 0.37399 55.845 1.40437e-07 
64 1 3.62489e-05 0.0713619 0.416256 55.845 9.25486e-08 
65 1 0.0357067 0.0714069 0.37412 55.845 -2.79042e-08 
66 1 0.0357276 0.107113 0.416365 55.845 1.15731e-07 
67 1 0.0715147 0.107059 0.374139 55.845 4.39415e-08 
74 1 5.45336e-05 2.00285e-05 0.416308 55.845 -2.09448e-07 
75 1 0.0356922 -6.22457e-06 0.374078 55.845 2.1003e-07 
76 1 0.0356647 0.0356902 0.41615 55.845 -4.28184e-08 
77 1 0.0713942 0.0357468 0.37424 55.845 1.7985e-07 
78 1 0.0714549 0.07141 0.416386 55.845 -3.08454e-09 
79 1 0.107223 0.0714284 0.374238 55.845 1.90677e-07 
80 1 0.107234 0.107098 0.416326 55.845 -1.5124e-07 
88 1 0.0714626 0.000126153 0.416255 55.845 -1.79209e-07 
89 1 0.107141 6.1542e-05 0.374185 55.845 2.1575e-07 
90 1 0.107156 0.0356903 0.416528 55.845 -1.43767e-07 
157 1 0.000143955 0.107211 0.291307 55.845 2.34675e-07 
165 1 -7.65386e-05 0.0356533 0.291219 55.845 1.66895e-07 
166 1 1.59692e-05 0.0713943 0.332582 55.845 1.64176e-07 
167 1 0.0357472 0.0713527 0.291302 55.845 2.05218e-07 
168 1 0.0357425 0.107144 0.332725 55.845 8.27734e-08 
169 1 0.0713902 0.107115 0.29132 55.845 1.34049e-08 
176 1 -6.54228e-05 4.44157e-05 0.332528 55.845 -4.22455e-07 
177 1 0.0357348 6.14188e-06 0.291301 55.845 1.33612e-07 
178 1 0.0356628 0.0357915 0.332658 55.845 -1.11289e-07 
179 1 0.0714634 0.0357104 0.291112 55.845 8.48032e-08 
180 1 0.0714763 0.071449 0.332758 55.845 -1.79112e-08 
181 1 0.107193 0.0714393 0.291341 55.845 -5.7082e-08 
182 1 0.107176 0.107163 0.332699 55.845 -6.53213e-08 
190 1 0.0713013 0.000120318 0.33268 55.845 -1.98841e-07 
191 1 0.107191 -0.00011592 0.291236 55.845 2.9132e-07 
192 1 0.107143 0.0356974 0.332841 55.845 -1.62547e-07 
268 1 7.58726e-05 0.0714064 0.250255 55.845 -1.81179e-07 
270 1 0.0358307 0.107078 0.250172 55.845 -1.51036e-07 
278 1 0.000108116 -6.19341e-05 0.249954 55.845 -2.90497e-07 
280 1 0.0356662 0.0357588 0.250109 55.845 -1.44254e-07 
282 1 0.0714887 0.071531 0.25032 55.845 -1.84074e-07 
284 1 0.107156 0.107099 0.250284 55.845 -1.30069e-07 
292 1 0.0714596 -0.000121359 0.250073 55.845 -2.20498e-07 
294 1 0.107128 0.0356246 0.250254 55.845 -1.76554e-07 
16 1 0.142956 0.107074 0.458566 55.845 2.80742e-07 
21 1 0.142931 0.0357151 0.458498 55.845 1.31518e-07 
22 1 0.178608 0.0714043 0.458611 55.845 8.27282e-08 
23 1 0.214337 0.107102 0.458642 55.845 -1.68966e-08 
27 1 0.178682 2.15217e-05 0.458546 55.845 -2.21642e-07 
28 1 0.214289 0.0356996 0.458592 55.845 -1.70998e-07 
29 1 0.249973 0.0713797 0.45858 55.845 -1.39351e-07 
81 1 0.142877 0.107079 0.374257 55.845 2.16514e-07 
91 1 0.142895 0.0356552 0.374279 55.845 2.4115e-07 
92 1 0.142973 0.0714144 0.416406 55.845 -1.82432e-07 
93 1 0.17865 0.071393 0.37421 55.845 2.22361e-07 
94 1 0.178645 0.107149 0.416417 55.845 -8.47166e-08 
95 1 0.214357 0.107159 0.374157 55.845 6.73486e-08 
102 1 0.142932 -6.94451e-05 0.416488 55.845 -2.49823e-08 
103 1 0.178621 1.75943e-05 0.374269 55.845 2.45675e-09 
104 1 0.178583 0.0357313 0.416323 55.845 4.67017e-08 
105 1 0.214324 0.0356888 0.374228 55.845 2.33829e-08 
106 1 0.214262 0.0714467 0.416467 55.845 5.60155e-08 
107 1 0.249982 0.0713605 0.374192 55.845 7.17701e-08 
108 1 0.25003 0.107127 0.416376 55.845 1.09478e-07 
118 1 0.214308 6.96286e-05 0.416429 55.845 2.84646e-07 
120 1 0.249981 0.0357661 0.416421 55.845 2.12713e-07 
183 1 0.142833 0.107288 0.291224 55.845 1.37931e-07 
193 1 0.142883 0.0356949 0.291376 55.845 9.66356e-08 
194 1 0.142837 0.0714952 0.332838 55.845 -1.32196e-07 
195 1 0.178519 0.0714185 0.291516 55.845 3.38974e-08 
196 1 0.178609 0.107173 0.332723 55.845 -1.01896e-07 
197 1 0.214341 0.107141 0.291118 55.845 7.47203e-08 
204 1 0.142907 2.56806e-05 0.33288 55.845 -4.13951e-08 
205 1 0.178578 -0.00010507 0.291277 55.845 1.61219e-07 
206 1 0.178548 0.0356831 0.332799 55.845 -4.68461e-08 
207 1 0.214363 0.035646 0.291432 55.845 6.41061e-08 
208 1 0.214417 0.0715117 0.332772 55.845 3.05549e-08 
209 1 0.250049 0.0714699 0.291325 55.845 -9.09481e-08 
210 1 0.250064 0.107143 0.332726 55.845 -9.32091e-08 
220 1 0.214349 -9.57534e-06 0.332823 55.845 1.02811e-07 
222 1 0.249977 0.0356857 0.332724 55.845 2.04309e-07 
296 1 0.142898 0.0714328 0.250185 55.845 -8.23857e-08 
298 1 0.178601 0.107072 0.250195 55.845 -5.04867e-08 
306 1 0.142851 -5.90765e-06 0.250215 55.845 -1.76834e-07 
308 1 0.178608 0.0357139 0.250186 55.845 -1.13808e-07 
310 1 0.214349 0.0713607 0.250172 55.845 6.01432e-08 
312 1 0.249993 0.107114 0.250015 55.845 -8.20579e-08 
322 1 0.214354 9.18066e-05 0.250227 55.845 -1.29238e-07 
324 1 0.250023 0.0357633 0.250156 55.845 4.72962e-08 
30 1 0.285779 0.107142 0.458348 55.845 -6.13936e-08 
35 1 0.250039 2.91572e-05 0.458533 55.845 -2.83247e-07 
36 1 0.285644 0.0357685 0.458537 55.845 -1.04481e-07 
37 1 0.321566 0.0713986 0.458503 55.845 -1.17911e-07 
38 1 0.357195 0.107097 0.458534 55.845 -1.93945e-07 
42 1 0.32149 3.10698e-05 0.458663 55.845 -1.6389e-07 
43 1 0.357122 0.0356841 0.458627 55.845 -1.83229e-09 
109 1 0.285816 0.107159 0.374072 55.845 -6.57208e-08 
119 1 0.250106 4.86786e-05 0.374001 55.845 -1.3749e-07 
121 1 0.285695 0.0357413 0.374155 55.845 -1.3919e-07 
122 1 0.285778 0.071459 0.416345 55.845 1.1697e-07 
123 1 0.321495 0.0714529 0.374149 55.845 -1.03295e-08 
124 1 0.321545 0.107058 0.416292 55.845 4.52233e-08 
125 1 0.357302 0.107212 0.374133 55.845 -1.37771e-07 
133 1 0.321512 8.25459e-05 0.374153 55.845 -1.35715e-07 
134 1 0.321443 0.0356009 0.416386 55.845 1.57708e-07 
135 1 0.357235 0.0357469 0.374259 55.845 -4.91202e-08 
136 1 0.357261 0.0713744 0.416361 55.845 8.31135e-08 
211 1 0.285723 0.107201 0.291188 55.845 -1.67859e-07 
221 1 0.250117 -7.67884e-05 0.291234 55.845 -1.62729e-07 
223 1 0.285696 0.0357758 0.29122 55.845 -1.09291e-07 
224 1 0.285734 0.0715122 0.332692 55.845 1.57679e-07 
225 1 0.321362 0.0714936 0.291138 55.845 -2.95602e-07 
226 1 0.321407 0.107226 0.332432 55.845 1.61748e-07 
227 1 0.35717 0.107189 0.291278 55.845 -3.32507e-07 
235 1 0.321351 -7.75399e-06 0.291345 55.845 -3.5941e-07 
236 1 0.321451 0.0357253 0.33286 55.845 3.11839e-07 
237 1 0.3572 0.0357582 0.291238 55.845 -1.77086e-07 
238 1 0.357236 0.0714366 0.332743 55.845 2.42116e-07 
326 1 0.285667 0.0715115 0.250109 55.845 1.65039e-07 
328 1 0.321473 0.107255 0.250117 55.845 2.54194e-07 
338 1 0.321457 0.0357555 0.250287 55.845 2.61892e-07 
340 1 0.357206 0.0714351 0.250177 55.845 3.44164e-07 
44 1 0.39289 0.0714187 0.458514 55.845 -1.02647e-07 
45 1 0.428646 0.107118 0.45853 55.845 -3.04173e-07 
47 1 0.392825 9.22834e-05 0.458531 55.845 -1.42912e-07 
48 1 0.428532 0.0357291 0.458646 55.845 -1.2956e-07 
49 1 0.464362 0.0713513 0.458444 55.845 -3.22193e-07 
50 1 0.464371 -3.16864e-05 0.458579 55.845 -1.86713e-07 
137 1 0.392965 0.0714188 0.374048 55.845 6.35612e-08 
138 1 0.392926 0.107229 0.416289 55.845 1.09726e-07 
139 1 0.428687 0.107065 0.374099 55.845 -1.35346e-07 
144 1 0.392803 1.80651e-05 0.374143 55.845 1.45668e-07 
145 1 0.392977 0.0357809 0.416352 55.845 1.22466e-07 
146 1 0.42867 0.0357015 0.374255 55.845 1.51519e-07 
147 1 0.428659 0.0713424 0.416511 55.845 1.38805e-07 
148 1 0.464427 0.0714468 0.374217 55.845 7.90052e-08 
149 1 0.464438 0.107108 0.416351 55.845 1.88847e-07 
150 1 0.428604 0.000114422 0.416367 55.845 7.24146e-08 
151 1 0.464299 0.000137022 0.374344 55.845 2.38577e-07 
152 1 0.464334 0.0357424 0.416472 55.845 6.63855e-08 
239 1 0.392882 0.0713723 0.291217 55.845 -2.75314e-07 
240 1 0.392999 0.107151 0.332612 55.845 2.57472e-07 
241 1 0.428665 0.10717 0.291141 55.845 -4.71043e-07 
246 1 0.392772 3.88375e-05 0.291302 55.845 -5.83748e-08 
247 1 0.392902 0.0357065 0.332745 55.845 6.34351e-08 
248 1 0.428623 0.0356408 0.291171 55.845 -4.32873e-09 
249 1 0.428626 0.0713537 0.332639 55.845 -2.60762e-08 
250 1 0.464261 0.0714755 0.291233 55.845 -2.93036e-07 
251 1 0.46438 0.107074 0.332583 55.845 1.36907e-07 
252 1 0.428607 8.6963e-05 0.332794 55.845 7.60394e-08 
253 1 0.464344 8.48234e-06 0.291314 55.845 6.20736e-08 
254 1 0.464298 0.0357475 0.332674 55.845 -2.39317e-08 
342 1 0.392877 0.107212 0.25001 55.845 4.0793e-07 
349 1 0.392869 0.0356661 0.250205 55.845 2.66014e-07 
351 1 0.428627 0.0713482 0.250235 55.845 2.18428e-07 
353 1 0.46446 0.107111 0.250062 55.845 3.5951e-07 
354 1 0.428567 -7.00988e-05 0.250141 55.845 3.01825e-07 
356 1 0.464278 0.0356871 0.250095 55.845 3.19251e-07 
1 1 -8.38775e-05 0.178555 0.458499 55.845 6.09398e-08 
2 1 0.0358303 0.214234 0.458684 55.845 -1.61051e-07 
4 1 0.0357351 0.142892 0.458587 55.845 4.75991e-08 
5 1 0.0715237 0.178515 0.458714 55.845 8.50873e-08 
6 1 0.107256 0.214233 0.458636 55.845 8.71046e-08 
10 1 0.107293 0.14283 0.458574 55.845 1.79381e-07 
51 1 8.71767e-06 0.178525 0.374238 55.845 2.06407e-08 
52 1 3.01029e-05 0.21433 0.416433 55.845 1.17805e-07 
53 1 0.0358156 0.214177 0.374288 55.845 1.26834e-07 
54 1 0.0357782 0.249999 0.416475 55.845 -6.31592e-08 
56 1 5.48721e-05 0.142736 0.416391 55.845 1.82622e-07 
57 1 0.035709 0.142873 0.374251 55.845 4.12379e-08 
58 1 0.0357349 0.178495 0.416518 55.845 1.2615e-07 
59 1 0.0714739 0.178549 0.374238 55.845 -2.76005e-08 
60 1 0.0714056 0.214203 0.416489 55.845 -3.92032e-08 
61 1 0.107179 0.214317 0.374184 55.845 4.19021e-09 
62 1 0.10719 0.250017 0.416455 55.845 -9.13579e-08 
68 1 0.0714801 0.142875 0.416452 55.845 -3.34391e-08 
69 1 0.107156 0.142853 0.374258 55.845 1.64514e-07 
70 1 0.107223 0.178555 0.416381 55.845 -1.07104e-07 
153 1 4.40972e-05 0.178495 0.291274 55.845 9.857e-08 
154 1 0.000113432 0.214277 0.332681 55.845 -8.2619e-08 
155 1 0.0357032 0.214244 0.291358 55.845 1.83043e-07 
156 1 0.0357801 0.250004 0.332859 55.845 -4.55579e-08 
158 1 1.34013e-05 0.142851 0.332801 55.845 7.01876e-08 
159 1 0.035762 0.142913 0.291227 55.845 -7.8706e-09 
160 1 0.03575 0.178566 0.332839 55.845 4.47476e-08 
161 1 0.0713694 0.178574 0.291264 55.845 1.4955e-07 
162 1 0.0715433 0.214185 0.332808 55.845 -4.38552e-10 
163 1 0.10735 0.214237 0.291167 55.845 2.12977e-07 
164 1 0.107273 0.249985 0.332686 55.845 -2.69262e-07 
170 1 0.0714442 0.142838 0.332721 55.845 4.06052e-08 
171 1 0.1072 0.142826 0.291146 55.845 1.6202e-07 
172 1 0.107128 0.178521 0.33263 55.845 1.05226e-08 
256 1 1.20816e-05 0.214287 0.250115 55.845 -3.23431e-07 
258 1 0.0357942 0.249929 0.250135 55.845 -4.54151e-07 
260 1 -1.20816e-05 0.142861 0.250259 55.845 -2.65513e-07 
262 1 0.0357564 0.178543 0.250195 55.845 -2.77788e-07 
264 1 0.0714706 0.214306 0.250164 55.845 -3.63362e-07 
266 1 0.107189 0.249949 0.250159 55.845 -6.873e-07 
272 1 0.0715261 0.142883 0.250078 55.845 -1.14485e-07 
274 1 0.107098 0.178613 0.25019 55.845 -2.83168e-07 
11 1 0.142918 0.178433 0.458454 55.845 -5.16508e-09 
12 1 0.178524 0.214279 0.458418 55.845 -3.52351e-08 
17 1 0.178632 0.142774 0.458582 55.845 -7.03225e-08 
18 1 0.214214 0.178556 0.458506 55.845 -2.32164e-07 
19 1 0.249997 0.214216 0.458494 55.845 -2.98765e-07 
24 1 0.24993 0.142914 0.458502 55.845 -1.25944e-07 
71 1 0.142894 0.178557 0.37417 55.845 7.56593e-08 
72 1 0.142814 0.214192 0.416407 55.845 3.75827e-10 
73 1 0.178586 0.214255 0.374097 55.845 2.75986e-09 
82 1 0.142948 0.142812 0.416419 55.845 -1.58916e-07 
83 1 0.178561 0.142844 0.374369 55.845 1.67521e-07 
84 1 0.178578 0.178589 0.416245 55.845 5.50179e-08 
85 1 0.214302 0.17852 0.374241 55.845 -1.68211e-08 
86 1 0.21424 0.214239 0.416385 55.845 1.28923e-07 
87 1 0.249962 0.214356 0.37426 55.845 1.25502e-08 
96 1 0.214275 0.142748 0.416522 55.845 8.65725e-08 
97 1 0.249985 0.142841 0.374107 55.845 -9.36891e-09 
98 1 0.249997 0.178559 0.416325 55.845 1.23845e-07 
173 1 0.14287 0.178484 0.29122 55.845 3.14266e-07 
174 1 0.142857 0.21422 0.332685 55.845 -2.57962e-07 
175 1 0.178614 0.214262 0.291187 55.845 2.00376e-07 
184 1 0.142929 0.142822 0.332747 55.845 -9.20045e-08 
185 1 0.17866 0.142783 0.29111 55.845 2.2766e-07 
186 1 0.178611 0.178498 0.332722 55.845 -2.30911e-07 
187 1 0.214369 0.178533 0.291381 55.845 1.18779e-07 
188 1 0.214313 0.214326 0.332667 55.845 -1.2783e-07 
189 1 0.250077 0.214275 0.291345 55.845 2.41597e-07 
198 1 0.214337 0.142847 0.332835 55.845 -2.52623e-07 
199 1 0.249979 0.142909 0.291209 55.845 -1.34535e-07 
200 1 0.250036 0.17866 0.33269 55.845 -2.61865e-07 
276 1 0.142929 0.214312 0.250102 55.845 -5.29521e-07 
286 1 0.142884 0.142897 0.250032 55.845 -8.95856e-08 
288 1 0.178554 0.178559 0.250197 55.845 -3.56772e-07 
290 1 0.214333 0.214374 0.250094 55.845 -2.90001e-07 
300 1 0.214305 0.142914 0.250067 55.845 -2.3922e-07 
302 1 0.249976 0.178606 0.25014 55.845 -2.37004e-07 
25 1 0.285738 0.178591 0.458177 55.845 -2.15132e-07 
26 1 0.321433 0.214336 0.458625 55.845 -1.02343e-07 
31 1 0.321443 0.142861 0.458581 55.845 -2.03297e-07 
32 1 0.357236 0.178523 0.458558 55.845 -3.42296e-07 
99 1 0.285697 0.178607 0.374151 55.845 -2.94746e-08 
100 1 0.285783 0.214299 0.416358 55.845 1.08142e-07 
101 1 0.321611 0.214353 0.374292 55.845 -9.67544e-08 
110 1 0.285646 0.142766 0.416249 55.845 1.07034e-07 
111 1 0.321577 0.142852 0.374136 55.845 -1.05936e-07 
112 1 0.321543 0.178581 0.416288 55.845 1.17871e-07 
113 1 0.357309 0.178529 0.374197 55.845 -2.0553e-07 
114 1 0.357071 0.214289 0.416514 55.845 2.99149e-07 
126 1 0.357188 0.142813 0.416305 55.845 1.36122e-07 
201 1 0.285692 0.178672 0.291181 55.845 -7.22542e-08 
202 1 0.285705 0.214268 0.332848 55.845 3.64882e-08 
203 1 0.321406 0.214278 0.291607 55.845 -1.50616e-07 
212 1 0.285758 0.142948 0.332645 55.845 -2.34186e-07 
213 1 0.321433 0.14296 0.291199 55.845 -2.82976e-07 
214 1 0.321384 0.178587 0.332841 55.845 1.91886e-08 
215 1 0.357166 0.178718 0.291435 55.845 -3.26381e-07 