ITEM: TIMESTEP
9100
ITEM: NUMBER OF ATOMS
5880
ITEM: BOX BOUNDS pp pp ff
-27.886 27.886
-27.886 27.886
0 34.092
ITEM: ATOMS id type xs ys zs mass q 
259 1 -7.78021e-05 0.107177 0.2095 55.845 4.93592e-07 
267 1 6.08306e-05 0.0356469 0.209912 55.845 4.09928e-07 
269 1 0.0356586 0.0714738 0.209777 55.845 6.42363e-07 
271 1 0.071466 0.107119 0.209726 55.845 5.1158e-07 
279 1 0.03574 5.93136e-05 0.209945 55.845 2.16128e-07 
281 1 0.0714998 0.0357521 0.209688 55.845 3.96967e-07 
283 1 0.107197 0.0715219 0.210002 55.845 6.27742e-07 
293 1 0.107 -8.40074e-05 0.209701 55.845 2.20375e-07 
361 1 -1.59487e-05 0.107107 0.127216 55.845 -2.03077e-07 
369 1 9.23035e-05 0.0357561 0.12746 55.845 -8.00525e-07 
370 1 2.00586e-05 0.0714718 0.168799 55.845 -2.26047e-07 
371 1 0.0357281 0.071351 0.127403 55.845 -4.07432e-07 
372 1 0.035613 0.107146 0.168675 55.845 -5.38209e-07 
373 1 0.0715345 0.107086 0.127292 55.845 -2.19014e-07 
380 1 5.26121e-05 7.79651e-05 0.168689 55.845 3.35225e-07 
381 1 0.0356298 8.98915e-05 0.12741 55.845 -1.27377e-06 
382 1 0.03581 0.0358148 0.168975 55.845 4.90028e-07 
383 1 0.0714877 0.0356407 0.127547 55.845 -7.02121e-07 
384 1 0.071474 0.0714616 0.168985 55.845 -3.51397e-07 
385 1 0.107167 0.0713595 0.12763 55.845 -1.05652e-06 
386 1 0.107184 0.107061 0.168758 55.845 3.12504e-07 
394 1 0.0714299 4.16576e-06 0.168805 55.845 3.43062e-07 
395 1 0.107074 -7.49923e-05 0.127459 55.845 -1.08207e-06 
396 1 0.107244 0.0356461 0.168982 55.845 6.14852e-07 
463 1 0 0.107143 0.0416667 55.845 -6.84375e-07 
471 1 0 0.0357143 0.0416667 55.845 -4.49201e-07 
472 1 -0.000107688 0.0713718 0.0852087 55.845 5.99333e-07 
473 1 0.0357143 0.0714286 0.0416667 55.845 -1.27092e-06 
474 1 0.0357966 0.107074 0.085238 55.845 1.37323e-06 
475 1 0.0714286 0.107143 0.0416667 55.845 -1.15543e-06 
482 1 -4.20483e-05 9.2058e-05 0.085154 55.845 4.91865e-07 
483 1 0.0357143 0 0.0416667 55.845 -1.96233e-07 
484 1 0.0357806 0.0357862 0.0850664 55.845 6.48577e-07 
485 1 0.0714286 0.0357143 0.0416667 55.845 -6.70373e-07 
486 1 0.0714968 0.0713894 0.0853701 55.845 1.4166e-06 
487 1 0.107143 0.0714286 0.0416667 55.845 -6.03335e-07 
488 1 0.107103 0.107096 0.0851127 55.845 7.05427e-07 
496 1 0.07119 -2.87132e-05 0.0852208 55.845 4.79632e-07 
497 1 0.107143 0 0.0416667 55.845 2.10024e-07 
498 1 0.107139 0.0357663 0.0853808 55.845 6.0806e-07 
567 1 0 0.0714286 0 55.845 5.35408e-07 
568 1 0.0357143 0.107143 0 55.845 3.59666e-07 
572 1 0 0 0 55.845 3.53848e-07 
573 1 0.0357143 0.0357143 0 55.845 -3.64139e-08 
574 1 0.0714286 0.0714286 0 55.845 8.05416e-07 
575 1 0.107143 0.107143 0 55.845 7.45715e-08 
579 1 0.0714286 0 0 55.845 3.04212e-08 
580 1 0.107143 0.0357143 0 55.845 3.88799e-08 
285 1 0.142976 0.107098 0.210117 55.845 2.48803e-07 
295 1 0.142963 0.0355939 0.209803 55.845 1.69122e-07 
297 1 0.178575 0.0714362 0.209986 55.845 8.52852e-07 
299 1 0.214289 0.107065 0.21 55.845 7.56375e-07 
307 1 0.178487 3.30514e-06 0.209753 55.845 -7.53466e-08 
309 1 0.214283 0.0356743 0.209873 55.845 3.7589e-07 
311 1 0.249953 0.0715075 0.210103 55.845 9.88785e-07 
387 1 0.142873 0.10708 0.127495 55.845 -8.59693e-07 
397 1 0.142882 0.0356922 0.127518 55.845 -6.68462e-07 
398 1 0.142866 0.0713406 0.168832 55.845 1.03093e-08 
399 1 0.178594 0.0714416 0.127508 55.845 -7.81099e-07 
400 1 0.178543 0.10708 0.168763 55.845 6.45137e-08 
401 1 0.214257 0.10719 0.127597 55.845 -1.11703e-06 
408 1 0.142702 -3.53182e-05 0.168761 55.845 5.6985e-07 
409 1 0.17847 0.000123703 0.127299 55.845 -4.22129e-07 
410 1 0.178719 0.0357579 0.168762 55.845 1.00107e-07 
411 1 0.214236 0.0357157 0.127436 55.845 -2.6241e-07 
412 1 0.21427 0.0713322 0.168968 55.845 -2.28582e-08 
413 1 0.249984 0.071385 0.127434 55.845 -1.11134e-06 
414 1 0.249994 0.10715 0.168895 55.845 3.59199e-07 
424 1 0.214231 -5.20289e-05 0.168702 55.845 -1.33492e-07 
426 1 0.249952 0.0357381 0.168902 55.845 -8.80796e-08 
489 1 0.142857 0.107143 0.0416667 55.845 -5.28684e-07 
499 1 0.142857 0.0357143 0.0416667 55.845 -1.4892e-07 
500 1 0.14284 0.0713276 0.0853257 55.845 1.19577e-06 
501 1 0.178571 0.0714286 0.0416667 55.845 -1.17881e-06 
502 1 0.178511 0.10718 0.0852085 55.845 5.84145e-07 
503 1 0.214286 0.107143 0.0416667 55.845 -5.47708e-07 
510 1 0.142783 5.81355e-05 0.0853189 55.845 8.23027e-07 
511 1 0.178571 0 0.0416667 55.845 -3.83819e-07 
512 1 0.178574 0.0358107 0.085232 55.845 6.12232e-07 
513 1 0.214286 0.0357143 0.0416667 55.845 -8.58322e-07 
514 1 0.214278 0.0714297 0.0853371 55.845 1.40575e-06 
515 1 0.25 0.0714286 0.0416667 55.845 -9.74598e-07 
516 1 0.250045 0.107065 0.0852323 55.845 6.69492e-07 
526 1 0.214185 -2.0951e-06 0.0851699 55.845 7.32491e-07 
528 1 0.250019 0.0357573 0.0852108 55.845 5.1635e-07 
581 1 0.142857 0.0714286 0 55.845 2.75838e-07 
582 1 0.178571 0.107143 0 55.845 5.5654e-07 
586 1 0.142857 0 0 55.845 -2.17853e-07 
587 1 0.178571 0.0357143 0 55.845 5.77002e-07 
588 1 0.214286 0.0714286 0 55.845 4.329e-07 
589 1 0.25 0.107143 0 55.845 4.66224e-07 
594 1 0.214286 0 0 55.845 4.16162e-08 
595 1 0.25 0.0357143 0 55.845 4.66563e-07 
313 1 0.285709 0.107075 0.209744 55.845 8.72035e-08 
323 1 0.249913 1.0879e-05 0.209833 55.845 7.43261e-07 
325 1 0.285684 0.0357088 0.209829 55.845 2.23196e-07 
327 1 0.321335 0.071454 0.209719 55.845 6.04786e-07 
329 1 0.357023 0.10714 0.209894 55.845 9.02346e-07 
337 1 0.321426 9.00552e-05 0.209705 55.845 6.00053e-07 
339 1 0.357165 0.0358838 0.209747 55.845 5.12417e-07 
415 1 0.285713 0.107084 0.127494 55.845 -1.19712e-06 
425 1 0.249907 3.80777e-05 0.127483 55.845 -4.62802e-07 
427 1 0.285652 0.0356134 0.127412 55.845 -4.23018e-07 
428 1 0.285666 0.0714403 0.168807 55.845 3.79826e-07 
429 1 0.321486 0.0713806 0.127381 55.845 -1.09101e-06 
430 1 0.321499 0.107269 0.168726 55.845 3.20409e-07 
431 1 0.357258 0.107151 0.127547 55.845 -1.11742e-06 
439 1 0.321548 -5.99118e-05 0.127356 55.845 -5.65326e-07 
440 1 0.32146 0.0357592 0.168557 55.845 3.51454e-07 
441 1 0.357266 0.0356616 0.127451 55.845 -3.81562e-07 
442 1 0.357132 0.0713927 0.168674 55.845 5.7016e-08 
517 1 0.285714 0.107143 0.0416667 55.845 8.31483e-08 
527 1 0.25 0 0.0416667 55.845 -7.59956e-07 
529 1 0.285714 0.0357143 0.0416667 55.845 -4.5111e-07 
530 1 0.285779 0.0713761 0.0854259 55.845 9.63212e-07 
531 1 0.321429 0.0714286 0.0416667 55.845 -3.0861e-07 
532 1 0.321523 0.107083 0.0852758 55.845 6.56014e-07 
533 1 0.357143 0.107143 0.0416667 55.845 -6.96241e-07 
603 1 0.357143 0.0714286 0 55.845 2.69697e-07 
541 1 0.321429 0 0.0416667 55.845 -2.64338e-07 
542 1 0.321453 0.0357395 0.0852924 55.845 4.97591e-07 
543 1 0.357143 0.0357143 0.0416667 55.845 -6.86698e-07 
544 1 0.357169 0.07145 0.0852557 55.845 1.08147e-06 
602 1 0.321429 0.0357143 0 55.845 3.68007e-07 
596 1 0.285714 0.0714286 0 55.845 8.71401e-08 
597 1 0.321429 0.107143 0 55.845 3.86467e-08 
612 1 0.464286 0.0357143 0 55.845 -2.21297e-07 
611 1 0.428571 0 0 55.845 7.48302e-07 
610 1 0.464286 0.107143 0 55.845 -5.99198e-07 
609 1 0.428571 0.0714286 0 55.845 -4.4941e-08 
608 1 0.392857 0.0357143 0 55.845 7.16081e-07 
341 1 0.392963 0.0714489 0.20998 55.845 2.74363e-07 
343 1 0.428567 0.107142 0.210096 55.845 1.84809e-07 
348 1 0.392892 -4.17793e-05 0.209725 55.845 4.58656e-07 
350 1 0.428555 0.0356861 0.209794 55.845 8.13083e-07 
352 1 0.464361 0.0713056 0.209956 55.845 9.05829e-08 
355 1 0.464263 -0.000116278 0.209711 55.845 5.23e-07 
443 1 0.392878 0.0715128 0.127466 55.845 -9.2998e-07 
444 1 0.392819 0.107166 0.168831 55.845 1.79647e-07 
445 1 0.428641 0.107154 0.127589 55.845 -6.80548e-07 
604 1 0.392857 0.107143 0 55.845 -3.41622e-08 
450 1 0.392844 6.19967e-05 0.127561 55.845 -5.52734e-07 
451 1 0.392822 0.0358429 0.168745 55.845 -8.25237e-09 
452 1 0.428614 0.0358497 0.127451 55.845 -9.11324e-07 
453 1 0.428684 0.0714459 0.168811 55.845 5.78332e-07 
454 1 0.464318 0.071492 0.127506 55.845 -7.65345e-07 
455 1 0.464312 0.107111 0.168779 55.845 3.97915e-07 
456 1 0.428632 4.74325e-05 0.168885 55.845 -7.93828e-08 
457 1 0.464271 1.48253e-05 0.127393 55.845 -8.88318e-07 
458 1 0.464239 0.0356976 0.168686 55.845 3.08329e-07 
545 1 0.392857 0.0714286 0.0416667 55.845 -5.81205e-07 
546 1 0.392971 0.107182 0.0854205 55.845 8.523e-07 
547 1 0.428571 0.107143 0.0416667 55.845 1.7175e-07 
552 1 0.392857 0 0.0416667 55.845 -1.07292e-06 
553 1 0.392811 0.0358155 0.08528 55.845 9.50064e-07 
554 1 0.428571 0.0357143 0.0416667 55.845 -5.9662e-07 
555 1 0.428567 0.0715916 0.0851774 55.845 4.56335e-07 
556 1 0.464286 0.0714286 0.0416667 55.845 3.66054e-07 
557 1 0.464268 0.107196 0.085393 55.845 5.56828e-07 
558 1 0.428527 7.15596e-05 0.0853936 55.845 5.21176e-07 
559 1 0.464286 0 0.0416667 55.845 -3.49709e-07 
560 1 0.464327 0.0357302 0.0852541 55.845 7.38196e-07 
255 1 7.11884e-05 0.178623 0.209923 55.845 -6.15481e-08 
257 1 0.035753 0.214335 0.20984 55.845 7.28071e-08 
261 1 0.0358109 0.142906 0.209642 55.845 4.91154e-07 
263 1 0.0715489 0.178516 0.209702 55.845 2.97076e-07 
265 1 0.107144 0.214269 0.20982 55.845 4.39438e-07 
273 1 0.107206 0.142833 0.209997 55.845 4.04131e-07 
357 1 0.000143311 0.178493 0.127484 55.845 -8.88089e-07 
358 1 -5.12845e-05 0.214198 0.168778 55.845 4.77617e-07 
359 1 0.0357659 0.214307 0.127349 55.845 -3.72436e-07 
360 1 0.0357142 0.250052 0.168613 55.845 -3.80141e-07 
362 1 4.05106e-06 0.143044 0.168629 55.845 2.77261e-07 
363 1 0.0357495 0.14281 0.127362 55.845 -1.36745e-07 
364 1 0.0357937 0.17851 0.168877 55.845 1.79715e-07 
365 1 0.0715047 0.178578 0.127545 55.845 -7.80244e-07 
366 1 0.0714219 0.214276 0.1688 55.845 5.24357e-08 
367 1 0.107241 0.214236 0.127636 55.845 -7.71038e-07 
368 1 0.107148 0.250092 0.168749 55.845 -1.36444e-07 
374 1 0.071532 0.142739 0.168894 55.845 -4.71201e-08 
375 1 0.10719 0.142865 0.127484 55.845 -9.62885e-07 
376 1 0.107218 0.178536 0.169012 55.845 5.62804e-07 
459 1 0 0.178571 0.0416667 55.845 1.38421e-07 
460 1 5.43701e-05 0.214128 0.0851744 55.845 4.99095e-07 
461 1 0.0357143 0.214286 0.0416667 55.845 -3.95859e-07 
462 1 0.0357703 0.249992 0.0853015 55.845 5.74657e-07 
464 1 2.05582e-05 0.14288 0.0852512 55.845 5.83759e-07 
465 1 0.0357143 0.142857 0.0416667 55.845 -6.52437e-07 
466 1 0.0357554 0.178507 0.0852991 55.845 1.13225e-06 
467 1 0.0714286 0.178571 0.0416667 55.845 -7.88542e-07 
468 1 0.0714479 0.214205 0.0853819 55.845 7.41572e-07 
469 1 0.107143 0.214286 0.0416667 55.845 -2.4619e-07 
470 1 0.107175 0.249959 0.0853811 55.845 6.48108e-07 
476 1 0.0714002 0.142861 0.0853654 55.845 8.97395e-07 
477 1 0.107143 0.142857 0.0416667 55.845 -8.49335e-08 
478 1 0.107121 0.178562 0.085342 55.845 6.42443e-07 
561 1 0 0.214286 0 55.845 -2.10356e-07 
562 1 0.0357143 0.25 0 55.845 1.23723e-07 
563 1 0 0.142857 0 55.845 1.41951e-07 
564 1 0.0357143 0.178571 0 55.845 -1.86163e-07 
565 1 0.0714286 0.214286 0 55.845 2.67189e-07 
566 1 0.107143 0.25 0 55.845 4.55824e-07 
569 1 0.0714286 0.142857 0 55.845 6.40278e-07 
570 1 0.107143 0.178571 0 55.845 -2.11474e-07 
275 1 0.142884 0.178476 0.209902 55.845 5.85699e-07 
277 1 0.178608 0.214133 0.209709 55.845 9.87793e-07 
287 1 0.178473 0.142748 0.209764 55.845 1.09969e-06 
289 1 0.214319 0.178418 0.210006 55.845 9.05058e-07 
291 1 0.250085 0.214187 0.209604 55.845 5.63132e-07 
301 1 0.250019 0.142805 0.209909 55.845 4.57252e-07 
377 1 0.1429 0.178549 0.127565 55.845 -8.71161e-07 
378 1 0.142866 0.214239 0.168857 55.845 -1.53919e-07 
379 1 0.178628 0.214256 0.127431 55.845 -8.32551e-07 
388 1 0.142855 0.142748 0.168913 55.845 -9.74665e-08 
389 1 0.178573 0.142796 0.127568 55.845 -5.13544e-07 
390 1 0.178658 0.178501 0.168902 55.845 -1.49239e-07 
391 1 0.214247 0.178562 0.127515 55.845 -1.052e-06 
392 1 0.214376 0.214268 0.168878 55.845 5.13473e-08 
393 1 0.249957 0.214295 0.127237 55.845 -7.54649e-07 
402 1 0.214282 0.142768 0.168995 55.845 -6.93661e-08 
403 1 0.250065 0.14292 0.127357 55.845 -7.2166e-07 
404 1 0.25009 0.178564 0.16886 55.845 5.726e-08 
479 1 0.142857 0.178571 0.0416667 55.845 -4.5081e-07 
480 1 0.142967 0.214242 0.0852623 55.845 5.78405e-07 
481 1 0.178571 0.214286 0.0416667 55.845 -7.23138e-07 
490 1 0.142774 0.142909 0.0853196 55.845 6.67884e-08 
491 1 0.178571 0.142857 0.0416667 55.845 -6.20654e-07 
492 1 0.178569 0.178524 0.0853637 55.845 8.6919e-07 
493 1 0.214286 0.178571 0.0416667 55.845 -6.27561e-07 
494 1 0.214341 0.21433 0.0853125 55.845 6.85684e-07 
495 1 0.25 0.214286 0.0416667 55.845 -8.16641e-07 
504 1 0.214335 0.142851 0.0853183 55.845 5.99168e-07 
505 1 0.25 0.142857 0.0416667 55.845 -2.35098e-07 
506 1 0.249988 0.17856 0.0852175 55.845 7.85539e-07 
571 1 0.142857 0.214286 0 55.845 6.69028e-07 
576 1 0.142857 0.142857 0 55.845 1.22951e-07 
577 1 0.178571 0.178571 0 55.845 5.67826e-07 
578 1 0.214286 0.214286 0 55.845 7.22123e-07 
583 1 0.214286 0.142857 0 55.845 6.69789e-07 
584 1 0.25 0.178571 0 55.845 7.21054e-07 
303 1 0.285693 0.178616 0.209834 55.845 3.20061e-07 
305 1 0.321423 0.21434 0.209821 55.845 7.81461e-07 
315 1 0.321342 0.14278 0.210048 55.845 1.08991e-06 
317 1 0.357075 0.178613 0.209883 55.845 9.25417e-07 
405 1 0.285816 0.178614 0.127348 55.845 -9.04809e-07 
406 1 0.285847 0.214333 0.168756 55.845 1.1786e-07 
407 1 0.321467 0.21429 0.127343 55.845 -8.47058e-07 
416 1 0.285799 0.142851 0.168781 55.845 5.2228e-08 
417 1 0.321459 0.142831 0.127368 55.845 -1.02142e-06 
418 1 0.3214 0.178543 0.168827 55.845 -4.63357e-08 
419 1 0.357181 0.178529 0.127452 55.845 -8.30426e-07 
420 1 0.357136 0.21417 0.168728 55.845 2.05322e-07 
432 1 0.35714 0.142879 0.168999 55.845 -2.21565e-07 
507 1 0.285714 0.178571 0.0416667 55.845 -6.59327e-07 
508 1 0.285691 0.214251 0.0852678 55.845 5.87482e-07 
509 1 0.321429 0.214286 0.0416667 55.845 -8.51694e-07 
518 1 0.285709 0.14285 0.0852189 55.845 3.42996e-07 
519 1 0.321429 0.142857 0.0416667 55.845 -7.29722e-07 
520 1 0.321466 0.178552 0.0851886 55.845 1.4064e-06 
521 1 0.357143 0.178571 0.0416667 55.845 -1.35775e-06 
522 1 0.357083 0.21425 0.085091 55.845 1.15721e-06 
534 1 0.357087 0.142848 0.0852662 55.845 1.31063e-06 
585 1 0.285714 0.214286 0 55.845 5.67851e-07 
590 1 0.285714 0.142857 0 55.845 4.37084e-07 
591 1 0.321429 0.178571 0 55.845 5.05314e-07 
592 1 0.357143 0.214286 0 55.845 3.99634e-07 
598 1 0.357143 0.142857 0 55.845 3.45321e-07 
319 1 0.392786 0.214283 0.209827 55.845 2.89942e-07 
321 1 0.428502 0.250049 0.209883 55.845 -1.33366e-08 
331 1 0.392873 0.142779 0.210066 55.845 8.38211e-07 
333 1 0.428564 0.178586 0.209711 55.845 2.73783e-07 
335 1 0.464276 0.214421 0.209744 55.845 6.7075e-07 
345 1 0.464346 0.142761 0.209821 55.845 1.34164e-07 
606 1 0.464286 0.178571 0 55.845 1.0662e-07 
421 1 0.392835 0.214197 0.127574 55.845 -3.78028e-07 
422 1 0.392747 0.249976 0.16885 55.845 4.41332e-07 
423 1 0.428561 0.250058 0.12752 55.845 -8.93081e-07 
433 1 0.392867 0.142877 0.127637 55.845 -7.38594e-07 
434 1 0.392904 0.178504 0.168963 55.845 -7.55161e-08 
435 1 0.428494 0.178587 0.127605 55.845 -3.95777e-07 
436 1 0.428555 0.214351 0.168918 55.845 -1.82763e-07 
437 1 0.464243 0.214443 0.127312 55.845 -9.14676e-08 
605 1 0.428571 0.142857 0 55.845 -1.55126e-07 
446 1 0.428576 0.142796 0.168881 55.845 2.19734e-07 
447 1 0.46438 0.142911 0.127488 55.845 -4.55898e-07 
448 1 0.464205 0.178425 0.16872 55.845 -4.18535e-08 
523 1 0.392857 0.214286 0.0416667 55.845 -6.12696e-07 
524 1 0.392801 0.250033 0.0854993 55.845 2.52604e-07 
525 1 0.428571 0.25 0.0416667 55.845 1.68605e-07 
535 1 0.392857 0.142857 0.0416667 55.845 -9.56195e-07 
536 1 0.392808 0.178488 0.0853986 55.845 1.20796e-06 
537 1 0.428571 0.178571 0.0416667 55.845 -7.30549e-07 
538 1 0.428419 0.214182 0.0853875 55.845 6.45804e-07 
539 1 0.464286 0.214286 0.0416667 55.845 -7.8286e-07 
548 1 0.42864 0.142845 0.0854423 55.845 9.15732e-07 
549 1 0.464286 0.142857 0.0416667 55.845 -2.91182e-07 
550 1 0.464286 0.178492 0.085348 55.845 1.20347e-06 
593 1 0.392857 0.25 0 55.845 -1.00472e-07 
599 1 0.392857 0.178571 0 55.845 3.30622e-07 
600 1 0.428571 0.214286 0 55.845 -1.43196e-07 
3 1 1.62043e-05 0.107258 0.465485 55.845 -3.94893e-07 
7 1 3.1399e-05 0.0357105 0.465254 55.845 -3.33653e-07 
8 1 0.035788 0.0713897 0.465269 55.845 -3.75278e-07 
9 1 0.0713998 0.107261 0.465333 55.845 -2.50543e-07 
13 1 0.035893 -6.79238e-05 0.465037 55.845 -5.04149e-07 
14 1 0.0715325 0.0357001 0.465244 55.845 -6.19646e-07 
15 1 0.107093 0.0714633 0.465082 55.845 -3.75968e-07 
20 1 0.10723 1.74002e-07 0.465167 55.845 -6.73086e-07 
55 1 5.30778e-05 0.10717 0.378823 55.845 1.07144e-07 
63 1 6.66477e-05 0.0358426 0.378846 55.845 -3.93299e-07 
64 1 6.15311e-05 0.0715857 0.421625 55.845 3.08263e-07 
65 1 0.0357881 0.0715113 0.379018 55.845 -1.60631e-07 
66 1 0.0357333 0.107173 0.421861 55.845 -2.32954e-07 
67 1 0.0713824 0.107149 0.378793 55.845 1.52521e-07 
74 1 8.07758e-05 -8.47332e-05 0.421608 55.845 3.39936e-07 
75 1 0.0357509 -3.47965e-05 0.378948 55.845 -2.59895e-07 
76 1 0.0358552 0.0356809 0.421472 55.845 3.78206e-07 
77 1 0.0714514 0.0357163 0.378708 55.845 -3.22351e-07 
78 1 0.0714809 0.0713902 0.421649 55.845 5.71376e-07 
79 1 0.107049 0.0714519 0.378674 55.845 -2.41794e-07 
80 1 0.107032 0.107211 0.421713 55.845 -2.02573e-07 
88 1 0.0715287 -5.91214e-05 0.421717 55.845 6.15397e-07 
89 1 0.107129 -0.00017355 0.378525 55.845 -2.31667e-07 
90 1 0.107209 0.0355875 0.421359 55.845 5.29899e-07 
157 1 0.000135935 0.107173 0.294972 55.845 -4.57335e-07 
165 1 5.87573e-05 0.0357385 0.295204 55.845 -3.53189e-10 
166 1 7.26255e-05 0.0715286 0.337328 55.845 2.26856e-07 
167 1 0.0357548 0.0714267 0.29501 55.845 -4.66916e-07 
168 1 0.0358122 0.107219 0.337292 55.845 5.91092e-07 
169 1 0.0713925 0.107168 0.295033 55.845 -1.86475e-07 
176 1 -0.000121015 7.26776e-05 0.337534 55.845 -4.90927e-07 
177 1 0.0355766 -0.000131776 0.295215 55.845 3.69287e-07 
178 1 0.0358038 0.0357762 0.337445 55.845 3.84586e-07 
179 1 0.0713853 0.0356071 0.295133 55.845 1.22161e-07 
180 1 0.071336 0.0713495 0.337209 55.845 1.17979e-07 
181 1 0.107036 0.0713693 0.295112 55.845 -2.84851e-07 
182 1 0.107006 0.107152 0.337276 55.845 -9.60434e-08 
190 1 0.07133 -0.000163747 0.337326 55.845 -3.84955e-07 
191 1 0.10699 2.27737e-05 0.295281 55.845 -4.44412e-08 
192 1 0.107097 0.0356668 0.337403 55.845 2.67117e-07 
268 1 0.000115838 0.0714749 0.25192 55.845 2.56046e-07 
270 1 0.0356365 0.107231 0.251923 55.845 -8.07485e-08 
278 1 0.000170719 -7.11638e-05 0.252316 55.845 -8.10274e-08 
280 1 0.0357455 0.0357206 0.252331 55.845 -2.3326e-07 
282 1 0.0713854 0.071518 0.25209 55.845 4.7783e-08 
284 1 0.107168 0.107139 0.252242 55.845 -3.69458e-07 
292 1 0.0713999 1.92266e-05 0.25217 55.845 1.64286e-07 
294 1 0.107161 0.035617 0.252095 55.845 -5.86348e-07 
16 1 0.142733 0.10723 0.465328 55.845 -3.96728e-07 
21 1 0.142828 0.035626 0.465028 55.845 -8.0076e-08 
22 1 0.178408 0.071442 0.465102 55.845 -4.62641e-07 
23 1 0.2143 0.10716 0.465116 55.845 -5.26394e-08 
27 1 0.178488 -9.38595e-05 0.465139 55.845 -5.19882e-07 
28 1 0.214283 0.035751 0.465004 55.845 -1.05288e-07 
29 1 0.249982 0.0713718 0.465146 55.845 -2.94427e-07 
81 1 0.142822 0.10708 0.378643 55.845 -2.1879e-07 
91 1 0.142822 0.0357582 0.378415 55.845 -4.10382e-07 
92 1 0.142743 0.0714405 0.421698 55.845 2.8097e-07 
93 1 0.178484 0.0714624 0.378714 55.845 -2.08713e-07 
94 1 0.178583 0.107114 0.421769 55.845 3.16808e-07 
95 1 0.214319 0.107179 0.378712 55.845 -8.44931e-07 
102 1 0.142823 3.46929e-05 0.421289 55.845 3.52988e-07 
103 1 0.178697 -0.000113433 0.37857 55.845 2.24452e-07 
104 1 0.17856 0.0356626 0.42143 55.845 3.6851e-07 
105 1 0.214344 0.0357323 0.378413 55.845 -3.26396e-07 
106 1 0.214171 0.0715521 0.421643 55.845 1.54178e-07 
107 1 0.250095 0.0713271 0.378605 55.845 -3.77621e-07 
108 1 0.250024 0.107113 0.42169 55.845 6.00775e-07 
118 1 0.214283 -5.9014e-05 0.421551 55.845 3.92377e-08 
120 1 0.249885 0.0358793 0.421618 55.845 2.61677e-07 
183 1 0.142832 0.107194 0.295324 55.845 -3.21483e-08 
193 1 0.142767 0.035642 0.295166 55.845 -5.67819e-08 
194 1 0.142794 0.0714403 0.337366 55.845 3.01575e-08 
195 1 0.178442 0.0714448 0.295384 55.845 -3.35193e-07 
196 1 0.178589 0.107091 0.337562 55.845 1.16947e-07 
197 1 0.214392 0.1072 0.295291 55.845 1.67827e-07 
204 1 0.142864 -0.000120129 0.337158 55.845 1.17257e-07 
205 1 0.178456 -9.60047e-05 0.295224 55.845 1.93964e-07 
206 1 0.178597 0.0356983 0.337315 55.845 -1.38043e-07 
207 1 0.214276 0.0357638 0.295155 55.845 1.22089e-07 
208 1 0.214306 0.0714572 0.337371 55.845 4.98763e-07 
209 1 0.250091 0.0713199 0.295245 55.845 -3.50951e-07 
210 1 0.250005 0.107174 0.337677 55.845 -8.34535e-08 
220 1 0.214299 -7.70124e-05 0.337194 55.845 1.69579e-07 
222 1 0.250142 0.0357556 0.337323 55.845 4.68098e-07 
296 1 0.142912 0.0713222 0.2523 55.845 -4.32363e-08 
298 1 0.178716 0.107124 0.252601 55.845 -2.75004e-08 
306 1 0.142832 -4.56541e-05 0.252223 55.845 -3.95876e-07 
308 1 0.178577 0.0357239 0.252196 55.845 -3.90791e-08 
310 1 0.214236 0.0714105 0.252292 55.845 -5.41272e-07 
312 1 0.250154 0.107182 0.252313 55.845 -2.26881e-07 
322 1 0.214178 -9.47244e-06 0.252197 55.845 -3.93694e-07 
324 1 0.249959 0.0356469 0.252285 55.845 -1.63929e-07 
30 1 0.285739 0.107067 0.465273 55.845 -2.92873e-08 
35 1 0.249935 8.07111e-05 0.465232 55.845 -2.46014e-07 
36 1 0.285687 0.0355822 0.46527 55.845 -2.93436e-07 
37 1 0.321386 0.0712888 0.465392 55.845 -5.60792e-07 
38 1 0.357157 0.107155 0.465254 55.845 -3.84269e-07 
42 1 0.321393 -3.60637e-05 0.465369 55.845 -4.23226e-07 
43 1 0.357145 0.0357308 0.46551 55.845 -1.36212e-08 
109 1 0.285676 0.107169 0.378856 55.845 -7.5582e-07 
119 1 0.250071 3.34441e-05 0.378838 55.845 -3.15777e-07 
121 1 0.285784 0.0356631 0.378986 55.845 -8.2617e-08 
122 1 0.285688 0.0713932 0.421984 55.845 3.92829e-07 
123 1 0.321457 0.0712774 0.37906 55.845 -2.89343e-08 
124 1 0.321369 0.107126 0.421764 55.845 4.39617e-07 
125 1 0.357143 0.106976 0.378964 55.845 -7.22436e-07 
133 1 0.321612 -1.41614e-05 0.37892 55.845 -8.4525e-08 
134 1 0.321482 0.0357061 0.421906 55.845 1.64585e-07 
135 1 0.35706 0.0356094 0.378816 55.845 -7.03563e-09 
136 1 0.357249 0.0713636 0.421645 55.845 4.1766e-07 
211 1 0.285803 0.106999 0.295316 55.845 1.19079e-07 
221 1 0.250112 -8.11926e-05 0.295166 55.845 -3.06982e-07 
223 1 0.28578 0.0357437 0.295135 55.845 3.79982e-07 
224 1 0.28584 0.0713998 0.337657 55.845 -1.273e-07 
225 1 0.321295 0.0714494 0.295143 55.845 1.47239e-09 
226 1 0.321419 0.107016 0.337545 55.845 1.98854e-07 
227 1 0.356985 0.107117 0.295262 55.845 -1.87162e-07 
235 1 0.321365 -2.29901e-05 0.295057 55.845 -1.08338e-08 
236 1 0.321498 0.0357072 0.337452 55.845 -1.70021e-07 
237 1 0.357031 0.0356027 0.295152 55.845 -4.0062e-07 
238 1 0.35697 0.07135 0.337204 55.845 2.98273e-08 
326 1 0.285723 0.0713829 0.252182 55.845 -1.79688e-07 
328 1 0.321388 0.107145 0.252203 55.845 -5.41522e-07 
338 1 0.321427 0.0356754 0.25217 55.845 -1.12952e-07 
340 1 0.357047 0.0714093 0.252267 55.845 -2.05681e-07 
44 1 0.392952 0.0714649 0.465331 55.845 -3.8931e-07 
45 1 0.428512 0.107109 0.465236 55.845 -6.76587e-07 
47 1 0.393016 -3.95722e-05 0.465338 55.845 -9.5571e-10 
48 1 0.428596 0.0357992 0.465275 55.845 -4.5253e-07 
49 1 0.464241 0.0715163 0.465221 55.845 -8.2616e-07 
50 1 0.464307 4.74254e-05 0.465336 55.845 -3.98054e-07 
137 1 0.39285 0.0714271 0.378663 55.845 -2.54279e-07 
138 1 0.392812 0.107177 0.421581 55.845 8.25979e-08 
139 1 0.428517 0.107077 0.378519 55.845 -5.35117e-09 
144 1 0.392825 -7.7941e-05 0.378826 55.845 -2.79891e-07 
145 1 0.392931 0.0355679 0.421856 55.845 -1.91276e-07 
146 1 0.428488 0.0356824 0.378926 55.845 -1.5808e-07 
147 1 0.428601 0.0714089 0.421376 55.845 6.76898e-07 
148 1 0.464324 0.0714806 0.378747 55.845 -2.93202e-07 
149 1 0.464243 0.107196 0.421668 55.845 8.10609e-07 
150 1 0.428586 -4.29062e-05 0.421741 55.845 2.43074e-07 
151 1 0.464387 1.5426e-05 0.378752 55.845 -3.88468e-07 
152 1 0.464275 0.0358376 0.421823 55.845 4.70805e-07 
239 1 0.392818 0.0713654 0.295235 55.845 -1.49008e-07 
240 1 0.392844 0.107203 0.337289 55.845 3.59449e-07 
241 1 0.428688 0.107103 0.295141 55.845 1.02517e-07 
246 1 0.392788 2.89834e-05 0.29489 55.845 -5.28495e-07 
247 1 0.39281 0.0357069 0.337295 55.845 1.02782e-07 
248 1 0.428627 0.0356831 0.294971 55.845 1.00352e-07 
249 1 0.428622 0.0713974 0.337131 55.845 -3.48407e-07 
250 1 0.464371 0.0714974 0.295093 55.845 4.47593e-07 
251 1 0.464336 0.107221 0.337316 55.845 -2.96856e-07 
252 1 0.428555 7.46335e-05 0.33752 55.845 2.81305e-07 
253 1 0.464309 7.27022e-05 0.295239 55.845 -2.69126e-08 
254 1 0.464238 0.0358402 0.337385 55.845 3.67485e-07 
342 1 0.392849 0.107154 0.252156 55.845 -4.89189e-07 
349 1 0.392815 0.0357947 0.252329 55.845 -1.21912e-07 
351 1 0.42866 0.0714261 0.251945 55.845 -4.97191e-07 
353 1 0.464482 0.107154 0.251894 55.845 -3.89076e-07 
354 1 0.428563 -3.13959e-05 0.252154 55.845 -1.52153e-07 
356 1 0.464331 0.0356157 0.251953 55.845 -2.29168e-07 
1 1 0.000101219 0.178576 0.465289 55.845 -9.8646e-07 
2 1 0.0356992 0.214247 0.465104 55.845 -8.58779e-07 
4 1 0.0356311 0.142922 0.465415 55.845 -8.7092e-08 
5 1 0.071396 0.178635 0.465146 55.845 -7.89611e-07 
6 1 0.107163 0.214245 0.465059 55.845 -5.62158e-07 
10 1 0.107161 0.142989 0.465308 55.845 -2.25768e-07 
51 1 -0.000106084 0.178605 0.378547 55.845 -2.453e-07 
52 1 -6.48286e-05 0.214159 0.421629 55.845 3.28673e-07 
53 1 0.0355801 0.214352 0.378512 55.845 5.14785e-07 
54 1 0.0357024 0.250042 0.4214 55.845 4.5856e-08 
56 1 1.55344e-05 0.142922 0.421704 55.845 5.10516e-07 
57 1 0.0356715 0.142865 0.378754 55.845 -1.88048e-07 
58 1 0.0356892 0.178519 0.421557 55.845 4.32571e-07 
59 1 0.0713478 0.178607 0.378824 55.845 1.2682e-07 
60 1 0.0713495 0.214305 0.421487 55.845 2.93623e-07 
61 1 0.107128 0.214335 0.378807 55.845 -1.53544e-07 
62 1 0.107114 0.250006 0.421698 55.845 1.89217e-07 
68 1 0.0714349 0.142962 0.421683 55.845 4.24875e-07 
69 1 0.10718 0.142821 0.378746 55.845 -1.89472e-07 
70 1 0.107119 0.178614 0.421638 55.845 3.30997e-07 
153 1 -6.4549e-05 0.178531 0.294959 55.845 2.04498e-07 
154 1 -3.35073e-05 0.214179 0.337186 55.845 -1.29713e-07 
155 1 0.0356953 0.214225 0.295029 55.845 -1.43784e-07 
156 1 0.0356282 0.249895 0.337346 55.845 2.90971e-07 
158 1 -8.971e-05 0.142952 0.337322 55.845 5.30311e-07 
159 1 0.035737 0.142829 0.295081 55.845 -4.1269e-07 
160 1 0.035711 0.178562 0.337436 55.845 -3.86738e-07 
161 1 0.0715207 0.178501 0.295186 55.845 4.9517e-07 
162 1 0.0712846 0.214217 0.337242 55.845 2.37316e-08 
163 1 0.107232 0.214457 0.295276 55.845 2.75645e-07 
164 1 0.107063 0.250046 0.337702 55.845 1.79291e-07 
170 1 0.0713796 0.142844 0.337409 55.845 -1.4126e-07 
171 1 0.10721 0.142978 0.295315 55.845 3.01821e-07 
172 1 0.107063 0.178656 0.33753 55.845 -5.42175e-07 
256 1 -0.000144002 0.214353 0.252258 55.845 -4.34978e-07 
258 1 0.0356779 0.250024 0.252294 55.845 2.89412e-07 
260 1 6.00151e-05 0.14289 0.25201 55.845 -1.00709e-06 
262 1 0.0357663 0.178565 0.25212 55.845 -1.95444e-07 
264 1 0.0713224 0.214297 0.252039 55.845 -1.17448e-08 
266 1 0.10719 0.25 0.252174 55.845 -5.08567e-07 
272 1 0.0714509 0.142838 0.252217 55.845 -7.521e-07 
274 1 0.107149 0.178642 0.252108 55.845 -3.78206e-07 
11 1 0.142799 0.178549 0.465267 55.845 -7.57585e-07 
12 1 0.178742 0.214231 0.465323 55.845 2.19025e-07 
17 1 0.178532 0.142797 0.465275 55.845 -1.08891e-07 
18 1 0.214344 0.178563 0.465259 55.845 -1.48156e-07 
19 1 0.250028 0.214271 0.465375 55.845 -1.12415e-07 
24 1 0.249995 0.142786 0.465204 55.845 -3.43423e-07 
71 1 0.142957 0.178582 0.378876 55.845 -1.60426e-07 
72 1 0.14304 0.214196 0.42173 55.845 6.48781e-07 
73 1 0.178703 0.214375 0.378734 55.845 -6.21118e-07 
82 1 0.142942 0.142814 0.421542 55.845 4.04516e-07 
83 1 0.178564 0.142861 0.378797 55.845 -3.81303e-07 
84 1 0.178605 0.178501 0.421695 55.845 3.32264e-07 
85 1 0.214338 0.178537 0.378956 55.845 -2.65977e-07 
86 1 0.214301 0.214361 0.421817 55.845 1.01913e-07 
87 1 0.250049 0.214292 0.378821 55.845 -3.17691e-07 
96 1 0.21421 0.142904 0.421668 55.845 2.68799e-07 
97 1 0.250006 0.142924 0.378883 55.845 -3.84258e-07 
98 1 0.249976 0.178563 0.421857 55.845 4.17452e-07 
173 1 0.142895 0.178678 0.295518 55.845 2.20575e-07 
174 1 0.142934 0.214316 0.337411 55.845 -1.78062e-07 
175 1 0.178709 0.214176 0.295269 55.845 -4.29551e-07 
184 1 0.142873 0.142824 0.33752 55.845 -3.44189e-07 
185 1 0.17854 0.142866 0.295236 55.845 -2.51184e-07 
186 1 0.17856 0.178568 0.337499 55.845 1.88775e-07 
187 1 0.214257 0.178479 0.295243 55.845 -6.86979e-08 
188 1 0.214476 0.214268 0.337429 55.845 -1.30696e-07 
189 1 0.250026 0.214246 0.295248 55.845 -4.14346e-08 
198 1 0.214373 0.142786 0.33756 55.845 6.06938e-08 
199 1 0.25008 0.142903 0.295284 55.845 -5.24993e-07 
200 1 0.250042 0.178558 0.337558 55.845 -4.77008e-07 
276 1 0.14293 0.214198 0.252214 55.845 5.31176e-08 
286 1 0.142836 0.142917 0.252351 55.845 2.54679e-07 
288 1 0.178533 0.178513 0.252255 55.845 -4.25632e-08 
290 1 0.214379 0.214129 0.252095 55.845 -4.24767e-08 
300 1 0.214235 0.142847 0.252177 55.845 -9.81182e-08 
302 1 0.250011 0.178713 0.252156 55.845 3.15922e-07 
25 1 0.285775 0.178596 0.465288 55.845 4.11282e-08 
26 1 0.321498 0.21427 0.465199 55.845 -9.97412e-08 
31 1 0.321545 0.142882 0.465356 55.845 -6.40448e-07 
32 1 0.357243 0.178689 0.465226 55.845 -2.77445e-07 
99 1 0.285746 0.178546 0.378702 55.845 -4.04232e-07 
100 1 0.285796 0.214174 0.421645 55.845 1.32704e-08 
101 1 0.321406 0.21444 0.378618 55.845 1.11772e-07 
110 1 0.285735 0.142918 0.421774 55.845 2.53128e-07 
111 1 0.321419 0.142918 0.378656 55.845 -1.26031e-08 
112 1 0.32141 0.178608 0.421725 55.845 8.72565e-08 
113 1 0.357111 0.17872 0.378793 55.845 -1.74562e-07 
114 1 0.357243 0.214446 0.421558 55.845 1.7002e-07 
126 1 0.357128 0.142853 0.421664 55.845 4.20097e-07 
201 1 0.285616 0.178521 0.295393 55.845 -1.14045e-07 
202 1 0.285744 0.214278 0.337484 55.845 -3.9358e-08 
203 1 0.321384 0.21443 0.295107 55.845 -3.30685e-07 
212 1 0.285647 0.142782 0.337678 55.845 -2.22834e-07 
213 1 0.321417 0.142719 0.295382 55.845 -3.48262e-07 
214 1 0.321496 0.178675 0.337618 55.845 2.92703e-07 
215 1 0.357212 0.17848 0.295476 55.845 -1.71324e-07 
216 1 0.357186 0.214338 0.337293 55.845 1.31963e-07 