ITEM: TIMESTEP
8700
ITEM: NUMBER OF ATOMS
5880
ITEM: BOX BOUNDS pp pp ff
-28.0272 28.0272
-28.0272 28.0272
0 34.092
ITEM: ATOMS id type xs ys zs mass q 
259 1 4.62292e-05 0.107199 0.207371 55.845 7.77742e-08 
267 1 2.31811e-06 0.0358121 0.20735 55.845 1.9484e-07 
269 1 0.0357941 0.0713749 0.207302 55.845 1.07876e-07 
271 1 0.0713788 0.107208 0.207167 55.845 1.84334e-07 
279 1 0.0356957 -2.57409e-05 0.207279 55.845 1.40224e-07 
281 1 0.071574 0.0356876 0.207248 55.845 1.51894e-07 
283 1 0.107099 0.0712904 0.207127 55.845 2.12169e-07 
293 1 0.107087 -1.3523e-06 0.207312 55.845 1.34231e-07 
361 1 3.093e-05 0.107024 0.124679 55.845 -5.15921e-07 
369 1 3.41263e-05 0.0356639 0.12461 55.845 -1.82035e-07 
370 1 4.59605e-05 0.0714675 0.165928 55.845 1.88108e-07 
371 1 0.035768 0.0713955 0.124672 55.845 -3.7731e-07 
372 1 0.0357716 0.107247 0.165783 55.845 3.55393e-07 
373 1 0.0714115 0.107238 0.124596 55.845 -4.14316e-07 
380 1 2.15793e-05 -4.56187e-05 0.165924 55.845 1.95557e-08 
381 1 0.0356553 6.19893e-06 0.124521 55.845 -1.4994e-07 
382 1 0.0357977 0.0357147 0.166054 55.845 1.21516e-07 
383 1 0.0714823 0.0357617 0.12463 55.845 -1.83679e-07 
384 1 0.0714648 0.0714303 0.165807 55.845 1.28859e-07 
385 1 0.107203 0.0714542 0.12481 55.845 -2.67921e-07 
386 1 0.107175 0.107175 0.165866 55.845 1.61043e-07 
394 1 0.0714882 -0.000150971 0.165696 55.845 2.26951e-08 
395 1 0.107062 -4.61149e-05 0.124422 55.845 -2.2138e-07 
396 1 0.107136 0.0357275 0.165654 55.845 9.82277e-08 
463 1 0 0.107143 0.0416667 55.845 -2.96269e-07 
471 1 0 0.0357143 0.0416667 55.845 -9.07617e-08 
472 1 -5.35724e-05 0.0713604 0.0824924 55.845 5.06944e-07 
473 1 0.0357143 0.0714286 0.0416667 55.845 -2.19583e-07 
474 1 0.0356057 0.107112 0.0826029 55.845 5.60288e-07 
475 1 0.0714286 0.107143 0.0416667 55.845 -1.81429e-07 
482 1 -4.31218e-06 2.48184e-05 0.082368 55.845 2.65687e-07 
483 1 0.0357143 0 0.0416667 55.845 -9.74401e-08 
484 1 0.0357067 0.0357386 0.0824928 55.845 3.28821e-07 
485 1 0.0714286 0.0357143 0.0416667 55.845 -1.31771e-07 
486 1 0.0714272 0.0715148 0.0824396 55.845 4.36116e-07 
487 1 0.107143 0.0714286 0.0416667 55.845 -1.03253e-07 
488 1 0.107217 0.10725 0.0823457 55.845 3.51291e-07 
496 1 0.0713266 -4.69383e-05 0.082451 55.845 3.35334e-07 
497 1 0.107143 0 0.0416667 55.845 -1.43495e-07 
498 1 0.107179 0.0356745 0.0825878 55.845 2.80637e-07 
567 1 0 0.0714286 0 55.845 7.51832e-08 
568 1 0.0357143 0.107143 0 55.845 1.12462e-07 
572 1 0 0 0 55.845 5.80638e-09 
573 1 0.0357143 0.0357143 0 55.845 6.72202e-08 
574 1 0.0714286 0.0714286 0 55.845 5.02198e-08 
575 1 0.107143 0.107143 0 55.845 3.84457e-08 
579 1 0.0714286 0 0 55.845 5.95026e-08 
580 1 0.107143 0.0357143 0 55.845 3.64442e-08 
285 1 0.142908 0.107161 0.207231 55.845 1.63662e-07 
295 1 0.142869 0.0356677 0.207132 55.845 6.7596e-08 
297 1 0.17859 0.0714371 0.207103 55.845 1.63975e-07 
299 1 0.214395 0.107202 0.207187 55.845 1.47577e-07 
307 1 0.178488 0.000102143 0.207286 55.845 1.2467e-07 
309 1 0.214321 0.0357444 0.207125 55.845 5.99159e-08 
311 1 0.249952 0.071543 0.207189 55.845 2.30341e-07 
387 1 0.142893 0.107101 0.124561 55.845 -2.31195e-07 
397 1 0.142824 0.0356739 0.124404 55.845 -2.92564e-07 
398 1 0.142831 0.0713718 0.165756 55.845 1.36328e-07 
399 1 0.178567 0.0713653 0.124456 55.845 -3.52598e-07 
400 1 0.178543 0.107203 0.165743 55.845 1.28486e-07 
401 1 0.214204 0.1073 0.124532 55.845 -8.7442e-08 
408 1 0.14275 -7.59382e-05 0.165744 55.845 1.65684e-07 
409 1 0.178522 -9.94026e-05 0.124556 55.845 -5.0502e-07 
410 1 0.178504 0.0356829 0.165643 55.845 2.92883e-07 
411 1 0.214287 0.0357337 0.124468 55.845 -3.76131e-07 
412 1 0.214247 0.0715149 0.165697 55.845 1.00453e-07 
413 1 0.25005 0.0714952 0.12444 55.845 -3.03643e-07 
414 1 0.250023 0.107184 0.165743 55.845 2.40082e-08 
424 1 0.2142 1.92697e-05 0.165587 55.845 2.32823e-07 
426 1 0.250039 0.0356824 0.165717 55.845 2.4585e-07 
489 1 0.142857 0.107143 0.0416667 55.845 -9.25037e-08 
499 1 0.142857 0.0357143 0.0416667 55.845 -1.29153e-07 
500 1 0.142838 0.0714926 0.0823054 55.845 3.57955e-07 
501 1 0.178571 0.0714286 0.0416667 55.845 -1.02112e-07 
502 1 0.178456 0.10726 0.0826067 55.845 2.99233e-07 
503 1 0.214286 0.107143 0.0416667 55.845 -1.36236e-07 
510 1 0.142883 3.23927e-06 0.0824938 55.845 3.77591e-07 
511 1 0.178571 0 0.0416667 55.845 -2.1222e-07 
512 1 0.178565 0.0357269 0.0823237 55.845 3.95274e-07 
513 1 0.214286 0.0357143 0.0416667 55.845 -1.88937e-07 
514 1 0.214362 0.0714544 0.0824297 55.845 3.47199e-07 
515 1 0.25 0.0714286 0.0416667 55.845 -1.26196e-07 
516 1 0.249992 0.107175 0.082462 55.845 2.3213e-07 
526 1 0.214259 0.000177129 0.0824017 55.845 4.67883e-07 
528 1 0.249972 0.0357184 0.0823629 55.845 4.07696e-07 
581 1 0.142857 0.0714286 0 55.845 2.51516e-08 
582 1 0.178571 0.107143 0 55.845 3.23087e-08 
586 1 0.142857 0 0 55.845 3.63962e-08 
587 1 0.178571 0.0357143 0 55.845 1.3043e-08 
588 1 0.214286 0.0714286 0 55.845 3.15327e-08 
589 1 0.25 0.107143 0 55.845 2.37896e-08 
594 1 0.214286 0 0 55.845 5.15484e-08 
595 1 0.25 0.0357143 0 55.845 3.77426e-08 
313 1 0.285671 0.107099 0.207257 55.845 1.29828e-07 
323 1 0.249925 7.57582e-06 0.207072 55.845 1.52846e-07 
325 1 0.285718 0.0357459 0.207381 55.845 4.16687e-08 
327 1 0.321358 0.0714737 0.207448 55.845 2.6171e-07 
329 1 0.357137 0.107105 0.207086 55.845 2.09008e-07 
337 1 0.321412 4.49412e-05 0.207346 55.845 1.83761e-07 
339 1 0.357086 0.0357655 0.207422 55.845 1.80735e-07 
415 1 0.285867 0.107086 0.124316 55.845 -1.74958e-07 
425 1 0.250011 1.10077e-05 0.12441 55.845 -4.14865e-07 
427 1 0.28563 0.0358116 0.12457 55.845 -3.66548e-07 
428 1 0.28568 0.071485 0.165811 55.845 1.52741e-07 
429 1 0.321431 0.0714157 0.124674 55.845 -4.09928e-07 
430 1 0.321473 0.107171 0.165985 55.845 1.39148e-07 
431 1 0.357099 0.107075 0.124621 55.845 -1.90749e-07 
439 1 0.321295 0.000105749 0.12457 55.845 -4.25e-07 
440 1 0.321386 0.0356824 0.166043 55.845 3.01688e-07 
441 1 0.35709 0.0356674 0.124735 55.845 -3.69371e-07 
442 1 0.357124 0.0713349 0.166021 55.845 1.22619e-07 
517 1 0.285714 0.107143 0.0416667 55.845 -1.60371e-07 
527 1 0.25 0 0.0416667 55.845 -2.12766e-07 
529 1 0.285714 0.0357143 0.0416667 55.845 -2.39955e-07 
530 1 0.285729 0.0714678 0.0823552 55.845 4.0802e-07 
531 1 0.321429 0.0714286 0.0416667 55.845 -1.84076e-07 
532 1 0.321534 0.107134 0.0824106 55.845 3.24922e-07 
533 1 0.357143 0.107143 0.0416667 55.845 -1.85095e-07 
603 1 0.357143 0.0714286 0 55.845 3.88673e-08 
541 1 0.321429 0 0.0416667 55.845 -2.4529e-07 
542 1 0.321476 0.0357753 0.0824667 55.845 5.10648e-07 
543 1 0.357143 0.0357143 0.0416667 55.845 -2.41875e-07 
544 1 0.357175 0.0714213 0.0826471 55.845 4.30022e-07 
602 1 0.321429 0.0357143 0 55.845 7.5413e-08 
596 1 0.285714 0.0714286 0 55.845 3.95938e-08 
597 1 0.321429 0.107143 0 55.845 3.05288e-08 
612 1 0.464286 0.0357143 0 55.845 6.33539e-08 
611 1 0.428571 0 0 55.845 5.17233e-08 
610 1 0.464286 0.107143 0 55.845 5.08452e-08 
609 1 0.428571 0.0714286 0 55.845 3.80623e-08 
608 1 0.392857 0.0357143 0 55.845 4.9818e-08 
341 1 0.392853 0.0713867 0.207341 55.845 2.70937e-07 
343 1 0.428596 0.107022 0.207395 55.845 5.65517e-08 
348 1 0.392833 -0.000149152 0.207234 55.845 2.77172e-07 
350 1 0.428686 0.0356154 0.207418 55.845 -4.40857e-08 
352 1 0.464418 0.0712241 0.207217 55.845 -2.3678e-08 
355 1 0.464363 -1.59261e-05 0.207148 55.845 -1.38085e-08 
443 1 0.392896 0.0713359 0.124626 55.845 -3.35713e-07 
444 1 0.392981 0.106995 0.165634 55.845 3.90482e-08 
445 1 0.42864 0.107017 0.124533 55.845 -2.19959e-07 
604 1 0.392857 0.107143 0 55.845 4.38339e-08 
450 1 0.392886 -2.56654e-05 0.124597 55.845 -4.43039e-07 
451 1 0.392921 0.0356824 0.165808 55.845 2.23981e-07 
452 1 0.428635 0.0356417 0.124485 55.845 -3.605e-07 
453 1 0.428623 0.0712977 0.165717 55.845 1.89539e-07 
454 1 0.464199 0.0713482 0.124428 55.845 -4.0731e-07 
455 1 0.464307 0.107069 0.165874 55.845 2.05827e-07 
456 1 0.428664 2.419e-05 0.165899 55.845 3.10473e-07 
457 1 0.464259 -2.16123e-05 0.124473 55.845 -4.61967e-07 
458 1 0.464292 0.0357275 0.165772 55.845 3.4365e-07 
545 1 0.392857 0.0714286 0.0416667 55.845 -1.74294e-07 
546 1 0.392771 0.107042 0.0825356 55.845 2.96665e-07 
547 1 0.428571 0.107143 0.0416667 55.845 -1.94909e-07 
552 1 0.392857 0 0.0416667 55.845 -1.87164e-07 
553 1 0.392872 0.0357096 0.0825352 55.845 4.79772e-07 
554 1 0.428571 0.0357143 0.0416667 55.845 -2.33503e-07 
555 1 0.428505 0.071404 0.0824686 55.845 3.91232e-07 
556 1 0.464286 0.0714286 0.0416667 55.845 -1.69347e-07 
557 1 0.464289 0.107027 0.0824064 55.845 3.64214e-07 
558 1 0.42857 -2.75288e-05 0.0824131 55.845 4.96592e-07 
559 1 0.464286 0 0.0416667 55.845 -2.29814e-07 
560 1 0.464266 0.0356529 0.0823028 55.845 4.66229e-07 
255 1 -1.7537e-06 0.178539 0.20716 55.845 1.80037e-08 
257 1 0.0357322 0.214206 0.207173 55.845 7.79508e-08 
261 1 0.0357094 0.142881 0.20722 55.845 6.31167e-08 
263 1 0.0713525 0.178586 0.207247 55.845 1.96432e-07 
265 1 0.107126 0.214286 0.20738 55.845 2.3177e-07 
273 1 0.10721 0.143044 0.207092 55.845 2.7261e-07 
357 1 5.75428e-05 0.178553 0.124372 55.845 -4.30956e-07 
358 1 6.20678e-05 0.214168 0.165662 55.845 1.66221e-07 
359 1 0.0356504 0.214268 0.124303 55.845 -3.2948e-07 
360 1 0.0356353 0.250014 0.165882 55.845 1.68898e-07 
362 1 0.000140635 0.142818 0.165753 55.845 2.71623e-07 
363 1 0.035698 0.142928 0.124316 55.845 -4.80878e-07 
364 1 0.0356167 0.178601 0.165636 55.845 3.04808e-07 
365 1 0.071459 0.178676 0.124483 55.845 -3.28097e-07 
366 1 0.0713301 0.214315 0.165831 55.845 4.676e-08 
367 1 0.107202 0.214241 0.124387 55.845 -3.25302e-07 
368 1 0.107076 0.249963 0.165991 55.845 1.76486e-07 
374 1 0.0714314 0.142955 0.165813 55.845 1.47969e-07 
375 1 0.107175 0.142937 0.124553 55.845 -2.94737e-07 
376 1 0.107035 0.178689 0.165936 55.845 1.22379e-07 
459 1 0 0.178571 0.0416667 55.845 -3.44343e-07 
460 1 -8.5591e-05 0.214295 0.0823515 55.845 5.82598e-07 
461 1 0.0357143 0.214286 0.0416667 55.845 -2.91284e-07 
462 1 0.0355832 0.249941 0.0824457 55.845 3.62507e-07 
464 1 1.5502e-06 0.142775 0.0824511 55.845 6.82367e-07 
465 1 0.0357143 0.142857 0.0416667 55.845 -2.96046e-07 
466 1 0.0357388 0.178565 0.0823997 55.845 5.67311e-07 
467 1 0.0714286 0.178571 0.0416667 55.845 -2.03167e-07 
468 1 0.0714012 0.214334 0.0824347 55.845 5.09395e-07 
469 1 0.107143 0.214286 0.0416667 55.845 -2.02436e-07 
470 1 0.10709 0.249981 0.0823147 55.845 4.08879e-07 
476 1 0.071459 0.142768 0.0823371 55.845 5.31962e-07 
477 1 0.107143 0.142857 0.0416667 55.845 -1.2429e-07 
478 1 0.107085 0.178581 0.0826275 55.845 3.73743e-07 
561 1 0 0.214286 0 55.845 1.41211e-07 
562 1 0.0357143 0.25 0 55.845 8.40881e-08 
563 1 0 0.142857 0 55.845 1.3813e-07 
564 1 0.0357143 0.178571 0 55.845 1.615e-07 
565 1 0.0714286 0.214286 0 55.845 9.87181e-08 
566 1 0.107143 0.25 0 55.845 8.81022e-08 
569 1 0.0714286 0.142857 0 55.845 6.9631e-08 
570 1 0.107143 0.178571 0 55.845 7.38571e-08 
275 1 0.142842 0.178617 0.207194 55.845 1.50389e-07 
277 1 0.17859 0.214321 0.207286 55.845 7.138e-08 
287 1 0.178629 0.142885 0.207158 55.845 1.89983e-07 
289 1 0.214277 0.178563 0.207321 55.845 1.14432e-07 
291 1 0.249976 0.21428 0.20724 55.845 2.26467e-07 
301 1 0.250006 0.142918 0.207369 55.845 2.80977e-07 
377 1 0.142832 0.178629 0.124637 55.845 -2.86476e-07 
378 1 0.142869 0.214378 0.165836 55.845 1.21793e-07 
379 1 0.178631 0.214347 0.124731 55.845 -4.50052e-07 
388 1 0.142933 0.14291 0.165745 55.845 2.21079e-08 
389 1 0.178603 0.142931 0.124606 55.845 -2.10114e-07 
390 1 0.178586 0.178611 0.166002 55.845 1.41197e-07 
391 1 0.214331 0.17861 0.124761 55.845 -1.78079e-07 
392 1 0.214267 0.21424 0.165896 55.845 1.68762e-07 
393 1 0.250017 0.214307 0.124697 55.845 -3.96539e-07 
402 1 0.214308 0.142862 0.165911 55.845 -9.30796e-08 
403 1 0.249923 0.142909 0.124465 55.845 -1.5843e-07 
404 1 0.250102 0.178572 0.165832 55.845 1.17593e-07 
479 1 0.142857 0.178571 0.0416667 55.845 -2.05357e-07 
480 1 0.142932 0.214331 0.0824253 55.845 5.43673e-07 
481 1 0.178571 0.214286 0.0416667 55.845 -2.96265e-07 
490 1 0.142879 0.142938 0.0824033 55.845 3.73944e-07 
491 1 0.178571 0.142857 0.0416667 55.845 -1.52326e-07 
492 1 0.178574 0.178617 0.0823501 55.845 3.63762e-07 
493 1 0.214286 0.178571 0.0416667 55.845 -2.30685e-07 
494 1 0.2143 0.21423 0.0825317 55.845 5.4531e-07 
495 1 0.25 0.214286 0.0416667 55.845 -1.83204e-07 
504 1 0.21438 0.142864 0.0825103 55.845 2.92362e-07 
505 1 0.25 0.142857 0.0416667 55.845 -1.19463e-07 
506 1 0.250055 0.178559 0.0824167 55.845 3.27357e-07 
571 1 0.142857 0.214286 0 55.845 6.88788e-08 
576 1 0.142857 0.142857 0 55.845 2.55694e-08 
577 1 0.178571 0.178571 0 55.845 6.94983e-08 
578 1 0.214286 0.214286 0 55.845 6.03582e-08 
583 1 0.214286 0.142857 0 55.845 3.43151e-08 
584 1 0.25 0.178571 0 55.845 3.86189e-08 
303 1 0.285764 0.178569 0.207232 55.845 1.57074e-07 
305 1 0.321392 0.214306 0.207108 55.845 2.6033e-07 
315 1 0.321442 0.142963 0.207204 55.845 2.75394e-07 
317 1 0.357065 0.178598 0.207187 55.845 1.89492e-07 
405 1 0.285638 0.178484 0.124506 55.845 -2.44407e-07 
406 1 0.285702 0.214212 0.165773 55.845 2.13156e-07 
407 1 0.321368 0.214287 0.124339 55.845 -4.1872e-07 
416 1 0.285637 0.142709 0.165667 55.845 2.62378e-08 
417 1 0.321406 0.142927 0.124541 55.845 -3.1878e-07 
418 1 0.321367 0.178603 0.165575 55.845 2.1743e-07 
419 1 0.357192 0.178455 0.124443 55.845 -2.14166e-07 
420 1 0.35708 0.214139 0.165542 55.845 9.75586e-08 
432 1 0.357263 0.142785 0.16584 55.845 2.45174e-08 
507 1 0.285714 0.178571 0.0416667 55.845 -1.65325e-07 
508 1 0.285668 0.21426 0.0823571 55.845 5.02359e-07 
509 1 0.321429 0.214286 0.0416667 55.845 -1.47806e-07 
518 1 0.285706 0.142806 0.0824087 55.845 3.25801e-07 
519 1 0.321429 0.142857 0.0416667 55.845 -1.30891e-07 
520 1 0.321418 0.178645 0.0824874 55.845 3.76076e-07 
521 1 0.357143 0.178571 0.0416667 55.845 -1.98289e-07 
522 1 0.357066 0.214291 0.08241 55.845 4.0092e-07 
534 1 0.357079 0.142747 0.0824417 55.845 3.34174e-07 
585 1 0.285714 0.214286 0 55.845 2.83511e-08 
590 1 0.285714 0.142857 0 55.845 1.49679e-08 
591 1 0.321429 0.178571 0 55.845 3.75427e-08 
592 1 0.357143 0.214286 0 55.845 4.1495e-08 
598 1 0.357143 0.142857 0 55.845 3.06644e-08 
319 1 0.392876 0.21442 0.207054 55.845 2.63434e-07 
321 1 0.428592 0.250151 0.207245 55.845 9.53651e-08 
331 1 0.392894 0.142815 0.207251 55.845 2.8526e-07 
333 1 0.428511 0.178648 0.207258 55.845 1.48118e-07 
335 1 0.464216 0.214336 0.207221 55.845 2.63679e-07 
345 1 0.464293 0.142809 0.207271 55.845 2.06727e-07 
606 1 0.464286 0.178571 0 55.845 8.50791e-08 
421 1 0.392876 0.214337 0.124454 55.845 -2.76913e-07 
422 1 0.392852 0.250056 0.165851 55.845 1.18806e-07 
423 1 0.428595 0.249982 0.12444 55.845 -2.19612e-07 
433 1 0.392948 0.142838 0.124426 55.845 -2.3004e-07 
434 1 0.392926 0.178594 0.165696 55.845 8.62565e-08 
435 1 0.428556 0.178438 0.124433 55.845 -2.32672e-07 
436 1 0.428582 0.21428 0.165691 55.845 8.42748e-08 
437 1 0.46434 0.214213 0.124701 55.845 -3.38777e-07 
605 1 0.428571 0.142857 0 55.845 6.50237e-08 
446 1 0.428654 0.142769 0.16582 55.845 7.33565e-08 
447 1 0.464342 0.14275 0.124489 55.845 -3.86528e-07 
448 1 0.464202 0.178455 0.16601 55.845 1.67385e-07 
523 1 0.392857 0.214286 0.0416667 55.845 -1.71443e-07 
524 1 0.392861 0.250067 0.082383 55.845 3.51236e-07 
525 1 0.428571 0.25 0.0416667 55.845 -1.94674e-07 
535 1 0.392857 0.142857 0.0416667 55.845 -1.71952e-07 
536 1 0.39295 0.178545 0.0823353 55.845 3.38561e-07 
537 1 0.428571 0.178571 0.0416667 55.845 -2.5162e-07 
538 1 0.428682 0.214351 0.0824436 55.845 3.86966e-07 
539 1 0.464286 0.214286 0.0416667 55.845 -1.95852e-07 
548 1 0.428537 0.142761 0.0824317 55.845 3.6139e-07 
549 1 0.464286 0.142857 0.0416667 55.845 -1.86726e-07 
550 1 0.46426 0.178495 0.0827009 55.845 4.55e-07 
593 1 0.392857 0.25 0 55.845 6.6493e-08 
599 1 0.392857 0.178571 0 55.845 6.87504e-08 
600 1 0.428571 0.214286 0 55.845 7.93687e-08 
3 1 -3.02143e-05 0.107218 0.457929 55.845 -1.97439e-07 
7 1 -4.95321e-05 0.0358228 0.458156 55.845 -3.44497e-07 
8 1 0.0356484 0.071565 0.457942 55.845 -3.45208e-07 
9 1 0.071399 0.107203 0.45795 55.845 -1.02744e-07 
13 1 0.0356446 5.62143e-05 0.4582 55.845 -3.4573e-07 
14 1 0.0713929 0.0356313 0.458006 55.845 -2.78782e-07 
15 1 0.107121 0.0714373 0.458183 55.845 -2.05191e-07 
20 1 0.107158 -6.52471e-05 0.458209 55.845 -1.18659e-07 
55 1 5.84566e-05 0.107068 0.373554 55.845 -9.19343e-08 
63 1 -6.15628e-06 0.0356544 0.373697 55.845 -2.26071e-07 
64 1 -8.33867e-05 0.0714318 0.415525 55.845 3.19257e-07 
65 1 0.0356471 0.0712937 0.373835 55.845 -1.93453e-07 
66 1 0.0357777 0.107142 0.415549 55.845 1.64116e-07 
67 1 0.0714049 0.107151 0.373619 55.845 7.93124e-08 
74 1 3.35968e-05 4.54e-05 0.415771 55.845 3.53111e-07 
75 1 0.0357247 5.34211e-05 0.37378 55.845 -2.63226e-07 
76 1 0.0356594 0.0356889 0.415604 55.845 3.99363e-07 
77 1 0.0714309 0.0356264 0.373759 55.845 -1.53916e-07 
78 1 0.0714235 0.0713607 0.41566 55.845 2.2595e-07 
79 1 0.107175 0.0713708 0.37355 55.845 3.52445e-09 
80 1 0.107245 0.107097 0.415612 55.845 -4.66466e-09 
88 1 0.0714215 1.4033e-05 0.415747 55.845 2.75296e-07 
89 1 0.107006 9.99088e-05 0.373691 55.845 -4.19143e-08 
90 1 0.107169 0.0357937 0.415797 55.845 1.29601e-07 
157 1 5.30543e-05 0.107145 0.291824 55.845 -1.90555e-07 
165 1 4.89429e-06 0.0357398 0.291858 55.845 -2.81552e-07 
166 1 -7.28291e-05 0.0713818 0.332472 55.845 -1.06497e-07 
167 1 0.0357718 0.0714868 0.291825 55.845 -1.91293e-07 
168 1 0.0356295 0.107176 0.332693 55.845 -2.47467e-07 
169 1 0.0714005 0.107119 0.291817 55.845 4.38416e-08 
176 1 3.30092e-06 -8.13947e-05 0.332499 55.845 -2.74112e-08 
177 1 0.0356312 -3.18131e-05 0.292098 55.845 -2.90297e-07 
178 1 0.0356989 0.0356139 0.332592 55.845 4.38306e-08 
179 1 0.0715302 0.0357265 0.291974 55.845 -2.88472e-07 
180 1 0.0713002 0.071452 0.33289 55.845 -2.25272e-07 
181 1 0.107107 0.0714445 0.291911 55.845 -6.8807e-08 
182 1 0.107108 0.107145 0.332392 55.845 -3.96725e-07 
190 1 0.0714981 -0.000148735 0.332626 55.845 -1.25113e-08 
191 1 0.107077 -6.21334e-05 0.291872 55.845 -2.90355e-07 
192 1 0.107105 0.0357745 0.332637 55.845 -1.58854e-07 
268 1 1.88811e-06 0.0715143 0.249482 55.845 1.07348e-09 
270 1 0.035649 0.107184 0.249402 55.845 -1.01743e-07 
278 1 3.7794e-05 7.15191e-05 0.24956 55.845 -9.61616e-09 
280 1 0.0357451 0.0357142 0.249575 55.845 6.5478e-08 
282 1 0.0714272 0.0714586 0.249482 55.845 -7.17118e-08 
284 1 0.107093 0.107096 0.249351 55.845 -2.75058e-07 
292 1 0.0713504 -2.48736e-05 0.249571 55.845 8.22583e-08 
294 1 0.107236 0.0356552 0.249438 55.845 -3.41084e-08 
16 1 0.142898 0.107071 0.458106 55.845 -1.95633e-07 
21 1 0.142811 0.0358047 0.45795 55.845 -1.99552e-07 
22 1 0.178596 0.0714802 0.458145 55.845 -4.24674e-07 
23 1 0.214316 0.107187 0.458032 55.845 -4.52896e-07 
27 1 0.178483 3.51486e-05 0.458229 55.845 -1.72951e-07 
28 1 0.214369 0.0356876 0.457961 55.845 -2.77979e-07 
29 1 0.249949 0.0714168 0.458083 55.845 -4.06885e-07 
81 1 0.142988 0.107039 0.373521 55.845 -3.47967e-08 
91 1 0.142816 0.0356262 0.373437 55.845 -7.00134e-08 
92 1 0.142882 0.0714253 0.415694 55.845 2.52224e-07 
93 1 0.178428 0.0714589 0.37341 55.845 -2.07237e-07 
94 1 0.178699 0.107203 0.415631 55.845 3.198e-07 
95 1 0.214279 0.107038 0.3736 55.845 -3.6751e-07 
102 1 0.142803 8.44639e-05 0.415679 55.845 9.16556e-08 
103 1 0.178537 3.87085e-05 0.373833 55.845 -3.33279e-09 
104 1 0.178565 0.0357124 0.415788 55.845 2.08392e-07 
105 1 0.214316 0.0357404 0.373715 55.845 -1.73388e-07 
106 1 0.214178 0.0713568 0.41561 55.845 4.84882e-07 
107 1 0.250049 0.0714134 0.373756 55.845 -1.7713e-07 
108 1 0.250044 0.107069 0.41568 55.845 3.59348e-07 
118 1 0.214252 5.12264e-05 0.415631 55.845 1.58791e-07 
120 1 0.250013 0.035667 0.41566 55.845 2.11834e-07 
183 1 0.142747 0.107121 0.291653 55.845 -4.72085e-08 
193 1 0.142952 0.0356638 0.291905 55.845 -1.4307e-07 
194 1 0.142723 0.0714069 0.332384 55.845 -2.94339e-07 
195 1 0.178648 0.0714705 0.291805 55.845 -2.08224e-07 
196 1 0.178605 0.107256 0.332419 55.845 -2.65449e-08 
197 1 0.214292 0.107093 0.291913 55.845 -2.96752e-07 
204 1 0.14278 -5.39819e-05 0.332574 55.845 -2.55647e-07 
205 1 0.178539 -2.06776e-05 0.291885 55.845 -1.5398e-07 
206 1 0.178583 0.035774 0.332643 55.845 -1.90657e-07 
207 1 0.214214 0.0356586 0.291778 55.845 -7.04949e-08 
208 1 0.214314 0.0714519 0.332639 55.845 -7.17216e-08 
209 1 0.249911 0.0714071 0.291831 55.845 -2.49211e-07 
210 1 0.250087 0.10715 0.332552 55.845 8.5361e-08 
220 1 0.214284 5.04037e-05 0.332572 55.845 -2.81478e-07 
222 1 0.24994 0.0357307 0.332799 55.845 -1.17279e-07 
296 1 0.142857 0.071405 0.249527 55.845 -8.51596e-08 
298 1 0.178643 0.107079 0.24938 55.845 -6.37154e-08 
306 1 0.142844 -7.71651e-05 0.249532 55.845 2.64574e-08 
308 1 0.178633 0.0357901 0.249406 55.845 -8.8988e-08 
310 1 0.214378 0.0713541 0.249539 55.845 3.24433e-08 
312 1 0.250018 0.107237 0.24959 55.845 -7.48306e-09 
322 1 0.214249 -9.8331e-05 0.249304 55.845 -1.32714e-08 
324 1 0.249999 0.0357963 0.249467 55.845 -1.77576e-08 
30 1 0.285592 0.107069 0.457952 55.845 -2.81053e-07 
35 1 0.250102 7.58549e-05 0.45805 55.845 -1.30772e-07 
36 1 0.285725 0.0357448 0.458163 55.845 -1.49655e-07 
37 1 0.321479 0.0713442 0.457964 55.845 -3.42972e-07 
38 1 0.357107 0.107107 0.458151 55.845 -2.31084e-07 
42 1 0.321473 9.09056e-05 0.458012 55.845 -1.018e-07 
43 1 0.35714 0.0357742 0.457958 55.845 -2.0953e-07 
109 1 0.28561 0.107087 0.37365 55.845 -2.04575e-07 
119 1 0.249996 4.73881e-06 0.373589 55.845 4.369e-08 
121 1 0.285743 0.0357616 0.373565 55.845 -8.47996e-08 
122 1 0.2857 0.0714427 0.415764 55.845 3.34468e-07 
123 1 0.321382 0.071376 0.37366 55.845 -2.67353e-08 
124 1 0.321353 0.107148 0.416062 55.845 2.07378e-07 
125 1 0.357013 0.107144 0.373718 55.845 -1.38081e-07 
133 1 0.321406 6.68644e-05 0.373668 55.845 1.20853e-07 
134 1 0.32135 0.0356785 0.415683 55.845 1.66822e-07 
135 1 0.357043 0.0356688 0.373628 55.845 -7.06846e-08 
136 1 0.357092 0.0713274 0.415722 55.845 2.86022e-07 
211 1 0.285697 0.107187 0.291982 55.845 -1.29081e-07 
221 1 0.249998 7.65899e-06 0.291798 55.845 -2.06029e-07 
223 1 0.285743 0.0357106 0.292008 55.845 -6.93708e-08 
224 1 0.285716 0.0714944 0.332609 55.845 -1.24958e-07 
225 1 0.321431 0.0715172 0.291601 55.845 -9.49892e-08 
226 1 0.321362 0.107143 0.332585 55.845 -1.13262e-07 
227 1 0.357228 0.107181 0.291721 55.845 -3.45537e-08 
235 1 0.321402 -3.89416e-05 0.291887 55.845 -1.9222e-07 
236 1 0.321449 0.0357002 0.33248 55.845 -1.8886e-07 
237 1 0.357167 0.0356819 0.291838 55.845 1.20036e-07 
238 1 0.357083 0.0714669 0.332486 55.845 -2.3918e-07 
326 1 0.285713 0.0714346 0.249457 55.845 4.25091e-08 
328 1 0.32132 0.107235 0.249385 55.845 -1.02469e-07 
338 1 0.321366 0.0357137 0.249485 55.845 -6.61696e-08 
340 1 0.357137 0.071496 0.249466 55.845 -1.07014e-07 
44 1 0.392774 0.0715117 0.457821 55.845 -3.15959e-07 
45 1 0.42852 0.10713 0.458035 55.845 -1.29649e-07 
47 1 0.39287 5.08081e-05 0.458063 55.845 -2.2961e-07 
48 1 0.428466 0.035684 0.45795 55.845 -2.44405e-07 
49 1 0.464256 0.0713444 0.458054 55.845 -1.68666e-07 
50 1 0.464293 0.000161012 0.458041 55.845 -2.84851e-07 
137 1 0.392788 0.0714475 0.373671 55.845 -3.92648e-08 
138 1 0.392736 0.107167 0.415661 55.845 1.90285e-07 
139 1 0.42854 0.107184 0.373737 55.845 -1.65224e-07 
144 1 0.392896 2.69001e-05 0.37359 55.845 7.30989e-08 
145 1 0.392783 0.035757 0.415577 55.845 2.59906e-07 
146 1 0.428698 0.0356641 0.373742 55.845 -1.9578e-07 
147 1 0.42856 0.0714681 0.415555 55.845 2.59661e-07 
148 1 0.464275 0.0714362 0.373605 55.845 -1.24792e-08 
149 1 0.464282 0.107079 0.415713 55.845 1.41998e-07 
150 1 0.428605 -0.000113002 0.415631 55.845 2.44295e-07 
151 1 0.464347 -1.4632e-05 0.373574 55.845 -5.95963e-08 
152 1 0.464392 0.0357952 0.415651 55.845 2.47875e-07 
239 1 0.392844 0.0714373 0.291912 55.845 -1.8279e-07 
240 1 0.392794 0.107206 0.332562 55.845 -6.99828e-08 
241 1 0.428509 0.107111 0.291887 55.845 -2.29831e-07 
246 1 0.392834 3.60503e-05 0.291929 55.845 -5.0379e-08 
247 1 0.392884 0.0357347 0.332741 55.845 -1.90038e-07 
248 1 0.428577 0.0357434 0.292014 55.845 -1.79458e-07 
249 1 0.428454 0.0714389 0.332584 55.845 -5.94564e-08 
250 1 0.464407 0.0714856 0.291923 55.845 -3.97976e-07 
251 1 0.464288 0.107308 0.332808 55.845 -1.05176e-07 
252 1 0.428589 3.58198e-08 0.332611 55.845 -1.58562e-07 
253 1 0.464256 -0.000102204 0.292052 55.845 -3.69595e-07 
254 1 0.464293 0.035736 0.332573 55.845 -3.95499e-08 
342 1 0.392881 0.107183 0.249591 55.845 -3.94487e-08 
349 1 0.392911 0.035765 0.24959 55.845 -1.30379e-07 
351 1 0.428643 0.0713589 0.249563 55.845 1.23448e-07 
353 1 0.46431 0.107112 0.249459 55.845 6.00431e-08 
354 1 0.428588 1.92911e-05 0.249557 55.845 1.34096e-08 
356 1 0.464362 0.0356806 0.249632 55.845 2.19361e-07 
1 1 3.76616e-05 0.178549 0.457848 55.845 -3.11067e-08 
2 1 0.0357466 0.214325 0.458117 55.845 -1.32836e-07 
4 1 0.0356507 0.142896 0.457819 55.845 -1.03582e-08 
5 1 0.0714864 0.178653 0.457938 55.845 9.69807e-08 
6 1 0.107149 0.214215 0.457964 55.845 -4.34286e-08 
10 1 0.107075 0.142793 0.457983 55.845 7.46197e-08 
51 1 8.45177e-05 0.178675 0.373491 55.845 -2.61194e-09 
52 1 6.08169e-05 0.21427 0.415601 55.845 2.42813e-07 
53 1 0.0357633 0.214194 0.373674 55.845 -1.36849e-07 
54 1 0.0357686 0.250005 0.415731 55.845 2.97177e-07 
56 1 2.26585e-05 0.142796 0.41542 55.845 6.10891e-08 
57 1 0.0356444 0.142881 0.373522 55.845 6.55064e-08 
58 1 0.0358711 0.178492 0.415727 55.845 -8.67266e-09 
59 1 0.0715769 0.178603 0.373571 55.845 1.59559e-07 
60 1 0.0714167 0.214317 0.415771 55.845 1.3546e-07 
61 1 0.107327 0.214285 0.373752 55.845 9.33248e-08 
62 1 0.10703 0.249943 0.415823 55.845 7.69139e-08 
68 1 0.0714125 0.142916 0.415644 55.845 -4.90913e-08 
69 1 0.10702 0.142774 0.37363 55.845 2.51251e-07 
70 1 0.107222 0.17848 0.415835 55.845 -1.36198e-07 
153 1 -6.62175e-05 0.178723 0.292071 55.845 -4.03508e-07 
154 1 9.28696e-05 0.214362 0.332566 55.845 -2.83526e-08 
155 1 0.0357625 0.214355 0.291802 55.845 -3.27249e-07 
156 1 0.0359154 0.249955 0.332506 55.845 -1.79795e-08 
158 1 -0.000127951 0.142869 0.332562 55.845 -2.68511e-07 
159 1 0.0357148 0.142955 0.292022 55.845 -1.38114e-07 
160 1 0.0357751 0.178683 0.332616 55.845 -1.62196e-07 
161 1 0.0715151 0.178639 0.291788 55.845 -5.52252e-08 
162 1 0.0715519 0.214332 0.332795 55.845 -3.04725e-07 
163 1 0.107106 0.214252 0.291668 55.845 -6.5922e-08 
164 1 0.107206 0.24992 0.332549 55.845 -2.26371e-07 
170 1 0.0714362 0.142796 0.3324 55.845 -5.07688e-07 
171 1 0.107222 0.142855 0.291757 55.845 7.88962e-08 
172 1 0.107129 0.178643 0.332561 55.845 -3.68823e-07 
256 1 1.30539e-05 0.214267 0.24943 55.845 2.74984e-07 
258 1 0.0356291 0.249998 0.249357 55.845 -3.21367e-08 
260 1 5.44363e-06 0.142799 0.249465 55.845 9.2991e-08 
262 1 0.0355976 0.178555 0.249731 55.845 2.12642e-08 
264 1 0.0714025 0.214289 0.249442 55.845 -6.30634e-08 
266 1 0.107129 0.250101 0.249364 55.845 -2.02714e-07 
272 1 0.0714996 0.142828 0.249424 55.845 -1.55235e-07 
274 1 0.107228 0.178545 0.249551 55.845 -2.63036e-07 
11 1 0.142948 0.178559 0.458163 55.845 -1.56472e-08 
12 1 0.178652 0.214337 0.458139 55.845 -2.92203e-07 
17 1 0.178625 0.142849 0.45813 55.845 -3.27338e-07 
18 1 0.214364 0.178553 0.458295 55.845 -3.18954e-07 
19 1 0.250027 0.214294 0.457985 55.845 -3.19302e-07 
24 1 0.250044 0.142826 0.458035 55.845 -3.67401e-07 
71 1 0.142937 0.17853 0.373847 55.845 3.12473e-08 
72 1 0.142882 0.214251 0.41584 55.845 1.6163e-07 
73 1 0.178566 0.214294 0.37364 55.845 -8.91386e-08 
82 1 0.142926 0.142866 0.415691 55.845 7.65063e-08 
83 1 0.178555 0.142937 0.373673 55.845 -1.54316e-07 
84 1 0.178734 0.178526 0.415741 55.845 1.66807e-07 
85 1 0.214293 0.178466 0.373616 55.845 -2.87221e-07 
86 1 0.214367 0.214197 0.415719 55.845 3.44333e-07 
87 1 0.250076 0.214338 0.373539 55.845 -3.4768e-08 
96 1 0.214399 0.142761 0.415588 55.845 4.23949e-07 
97 1 0.250001 0.142822 0.373842 55.845 -1.95732e-07 
98 1 0.249931 0.178519 0.415648 55.845 2.42661e-07 
173 1 0.142884 0.178564 0.291643 55.845 -1.2265e-07 
174 1 0.142859 0.214221 0.332738 55.845 -2.73556e-07 
175 1 0.178645 0.21424 0.291853 55.845 -2.90833e-07 
184 1 0.142825 0.142855 0.332454 55.845 -3.51347e-07 
185 1 0.17847 0.142905 0.291749 55.845 -3.23959e-07 
186 1 0.178536 0.178635 0.332684 55.845 -1.10495e-08 
187 1 0.214192 0.178639 0.291867 55.845 -2.87453e-07 
188 1 0.214422 0.214226 0.332823 55.845 -1.56005e-07 
189 1 0.25003 0.214284 0.291875 55.845 -1.25914e-07 
198 1 0.214279 0.142925 0.332608 55.845 1.14565e-08 
199 1 0.249919 0.142925 0.291916 55.845 -3.54598e-07 
200 1 0.24995 0.178478 0.332661 55.845 -1.58963e-09 
276 1 0.142948 0.214344 0.249372 55.845 9.08873e-09 
286 1 0.142882 0.142818 0.249281 55.845 -8.50116e-08 
288 1 0.178538 0.178524 0.249309 55.845 -2.88043e-08 
290 1 0.214424 0.214347 0.249379 55.845 8.94593e-08 
300 1 0.214182 0.142855 0.249731 55.845 1.11629e-07 
302 1 0.250024 0.178632 0.249518 55.845 -9.50895e-08 
25 1 0.28563 0.178557 0.458015 55.845 -2.03611e-07 
26 1 0.321272 0.214322 0.458192 55.845 -2.06399e-07 
31 1 0.321437 0.142816 0.458109 55.845 -2.80787e-07 
32 1 0.357175 0.178591 0.458311 55.845 -1.52335e-07 
99 1 0.285709 0.178545 0.373606 55.845 -1.18908e-07 
100 1 0.285753 0.21428 0.415781 55.845 3.0426e-07 
101 1 0.321466 0.214312 0.373664 55.845 8.42361e-08 
110 1 0.285597 0.14285 0.415863 55.845 3.30655e-07 
111 1 0.321333 0.142799 0.373751 55.845 -2.79527e-08 
112 1 0.321299 0.178647 0.415909 55.845 1.67752e-07 
113 1 0.357058 0.17856 0.373858 55.845 -9.53629e-08 
114 1 0.357107 0.214248 0.415964 55.845 1.99239e-07 
126 1 0.357058 0.142869 0.415786 55.845 2.46927e-07 
201 1 0.285715 0.178569 0.291869 55.845 -3.08726e-08 
202 1 0.285726 0.214248 0.332661 55.845 -3.22507e-07 
203 1 0.321528 0.214341 0.291876 55.845 -2.79334e-08 
212 1 0.285599 0.142832 0.332628 55.845 -1.32509e-07 
213 1 0.321458 0.142972 0.29186 55.845 -1.6851e-07 
214 1 0.321481 0.178589 0.332797 55.845 -1.29489e-07 
215 1 0.357154 0.178589 0.291706 55.845 -6.98373e-08 
216 1 0.357273 0.214148 0.332604 55.845 -2.33214e-07 