ITEM: TIMESTEP
4100
ITEM: NUMBER OF ATOMS
5880
ITEM: BOX BOUNDS pp pp ff
-27.9634 27.9634
-27.9634 27.9634
0 34.092
ITEM: ATOMS id type xs ys zs mass q 
259 1 -1.58273e-05 0.107172 0.208514 55.845 8.79545e-08 
267 1 -1.66501e-05 0.035802 0.208425 55.845 1.69824e-07 
269 1 0.0356767 0.0714031 0.208557 55.845 3.77463e-07 
271 1 0.0713328 0.107071 0.208548 55.845 4.27113e-07 
279 1 0.0357401 2.53984e-05 0.20858 55.845 1.96588e-07 
281 1 0.0714601 0.0356802 0.208455 55.845 1.63174e-07 
283 1 0.107162 0.0714195 0.208335 55.845 6.13322e-07 
293 1 0.107192 4.45718e-05 0.208475 55.845 4.96678e-07 
361 1 4.13667e-07 0.107158 0.125347 55.845 -1.38527e-07 
369 1 3.53591e-05 0.0357331 0.125457 55.845 -4.59471e-07 
370 1 7.84934e-05 0.0714609 0.167052 55.845 8.01585e-08 
371 1 0.035673 0.0713999 0.125215 55.845 -1.06062e-07 
372 1 0.0356702 0.10712 0.167026 55.845 5.36779e-07 
373 1 0.071469 0.107155 0.125422 55.845 4.36499e-08 
380 1 2.73961e-06 4.86395e-05 0.167205 55.845 1.62201e-07 
381 1 0.0356522 0.00011548 0.125486 55.845 -1.7177e-07 
382 1 0.0357122 0.0357429 0.167103 55.845 4.15808e-07 
383 1 0.0714301 0.0356998 0.125276 55.845 -8.19066e-08 
384 1 0.0713646 0.0714021 0.166951 55.845 -9.59399e-08 
385 1 0.107188 0.071418 0.125417 55.845 -2.01652e-07 
386 1 0.107099 0.107136 0.166994 55.845 2.06813e-07 
394 1 0.0714733 4.49316e-05 0.166991 55.845 -2.05717e-07 
395 1 0.107133 1.50389e-05 0.12528 55.845 2.32154e-08 
396 1 0.107091 0.0356887 0.167033 55.845 1.30134e-07 
463 1 0 0.107143 0.0416667 55.845 6.38358e-07 
471 1 0 0.0357143 0.0416667 55.845 6.7673e-07 
472 1 -7.48188e-06 0.071438 0.0833879 55.845 -2.83456e-08 
473 1 0.0357143 0.0714286 0.0416667 55.845 6.88006e-07 
474 1 0.0356801 0.107212 0.0834499 55.845 -6.29881e-07 
475 1 0.0714286 0.107143 0.0416667 55.845 6.10316e-07 
482 1 -7.19319e-05 -3.99195e-05 0.0834799 55.845 -5.60199e-07 
483 1 0.0357143 0 0.0416667 55.845 5.94129e-07 
484 1 0.0357527 0.0357764 0.0834356 55.845 -8.6217e-07 
485 1 0.0714286 0.0357143 0.0416667 55.845 4.31353e-07 
486 1 0.0714789 0.0714736 0.0835233 55.845 -1.76752e-07 
487 1 0.107143 0.0714286 0.0416667 55.845 8.34343e-08 
488 1 0.107097 0.107145 0.0834464 55.845 -4.32846e-07 
496 1 0.0713672 4.5247e-05 0.0833714 55.845 -5.53888e-07 
497 1 0.107143 0 0.0416667 55.845 -3.55366e-08 
498 1 0.107162 0.0357154 0.0835275 55.845 -4.7841e-07 
567 1 0 0.0714286 0 55.845 -6.3733e-08 
568 1 0.0357143 0.107143 0 55.845 1.68827e-07 
572 1 0 0 0 55.845 -4.65405e-07 
573 1 0.0357143 0.0357143 0 55.845 -1.1238e-07 
574 1 0.0714286 0.0714286 0 55.845 -1.94295e-07 
575 1 0.107143 0.107143 0 55.845 3.40244e-08 
579 1 0.0714286 0 0 55.845 -5.4403e-07 
580 1 0.107143 0.0357143 0 55.845 -1.64106e-08 
285 1 0.142903 0.107164 0.208445 55.845 9.39127e-07 
295 1 0.142839 0.0357551 0.208581 55.845 6.03657e-07 
297 1 0.178604 0.0713734 0.208476 55.845 7.35131e-07 
299 1 0.214294 0.107219 0.208367 55.845 4.64318e-07 
307 1 0.178526 2.34776e-05 0.208453 55.845 6.54597e-07 
309 1 0.214268 0.0357303 0.208507 55.845 1.74267e-07 
311 1 0.249992 0.0714294 0.208476 55.845 2.24942e-07 
387 1 0.142907 0.107134 0.125225 55.845 -7.98302e-08 
397 1 0.142899 0.0356868 0.125337 55.845 -1.35927e-07 
398 1 0.142901 0.071411 0.166918 55.845 -2.04263e-07 
399 1 0.178515 0.0714241 0.125292 55.845 -2.93947e-07 
400 1 0.178547 0.107098 0.167036 55.845 1.45009e-07 
401 1 0.214298 0.107147 0.12529 55.845 1.4621e-07 
408 1 0.142893 -2.4141e-05 0.16704 55.845 -1.79859e-07 
409 1 0.178619 -4.40408e-05 0.125377 55.845 -1.59829e-07 
410 1 0.178493 0.0356501 0.166975 55.845 1.99117e-07 
411 1 0.214309 0.0356801 0.125434 55.845 -2.56992e-07 
412 1 0.214238 0.0715108 0.167088 55.845 -1.25733e-07 
413 1 0.249986 0.0714481 0.125472 55.845 -2.67086e-07 
414 1 0.249976 0.107143 0.166988 55.845 2.0471e-07 
424 1 0.214256 -7.23425e-06 0.167089 55.845 -4.99512e-08 
426 1 0.25008 0.0357515 0.167082 55.845 2.44285e-07 
489 1 0.142857 0.107143 0.0416667 55.845 8.61021e-08 
499 1 0.142857 0.0357143 0.0416667 55.845 -1.25847e-08 
500 1 0.142738 0.0713769 0.0832887 55.845 1.49423e-07 
501 1 0.178571 0.0714286 0.0416667 55.845 6.25819e-08 
502 1 0.178553 0.107135 0.0834614 55.845 -3.88975e-07 
503 1 0.214286 0.107143 0.0416667 55.845 2.43132e-07 
510 1 0.142904 -7.72807e-06 0.0834434 55.845 -6.64559e-08 
511 1 0.178571 0 0.0416667 55.845 5.72272e-07 
512 1 0.178601 0.0356401 0.0834491 55.845 -4.54388e-07 
513 1 0.214286 0.0357143 0.0416667 55.845 3.86364e-07 
514 1 0.214279 0.0714131 0.0834078 55.845 -4.11767e-08 
515 1 0.25 0.0714286 0.0416667 55.845 -2.20128e-07 
516 1 0.24998 0.107153 0.0833924 55.845 -3.65715e-07 
526 1 0.214304 -2.79972e-05 0.0834688 55.845 -6.44052e-07 
528 1 0.25001 0.0357096 0.0836174 55.845 -7.06416e-07 
581 1 0.142857 0.0714286 0 55.845 -8.35402e-08 
582 1 0.178571 0.107143 0 55.845 -9.37504e-08 
586 1 0.142857 0 0 55.845 -1.33224e-07 
587 1 0.178571 0.0357143 0 55.845 5.80708e-08 
588 1 0.214286 0.0714286 0 55.845 6.27733e-08 
589 1 0.25 0.107143 0 55.845 2.32567e-07 
594 1 0.214286 0 0 55.845 -3.95134e-07 
595 1 0.25 0.0357143 0 55.845 7.45239e-08 
313 1 0.285703 0.107173 0.208307 55.845 5.28902e-07 
323 1 0.249987 8.1486e-06 0.208543 55.845 -1.67997e-07 
325 1 0.285721 0.0357418 0.208453 55.845 8.96951e-08 
327 1 0.321413 0.0714455 0.208507 55.845 6.10892e-07 
329 1 0.357155 0.107185 0.208534 55.845 8.23778e-07 
337 1 0.321503 3.97821e-05 0.208564 55.845 4.82952e-07 
339 1 0.357122 0.0357447 0.20847 55.845 7.58179e-07 
415 1 0.285673 0.107212 0.12528 55.845 1.67528e-08 
425 1 0.249959 3.23999e-05 0.125371 55.845 -1.61125e-07 
427 1 0.285752 0.0357311 0.125393 55.845 -4.78155e-08 
428 1 0.285656 0.0714764 0.167008 55.845 -1.18518e-07 
429 1 0.321363 0.0713827 0.125291 55.845 -1.20317e-07 
430 1 0.321443 0.107143 0.166953 55.845 -2.20433e-07 
431 1 0.357102 0.107184 0.125398 55.845 -4.00701e-07 
439 1 0.321406 -1.67927e-05 0.125138 55.845 1.32173e-07 
440 1 0.321468 0.0356957 0.167012 55.845 2.61494e-07 
441 1 0.357145 0.0356587 0.125336 55.845 -5.26541e-08 
442 1 0.357153 0.0714639 0.167054 55.845 -4.74236e-08 
517 1 0.285714 0.107143 0.0416667 55.845 -1.35292e-07 
527 1 0.25 0 0.0416667 55.845 1.08797e-06 
529 1 0.285714 0.0357143 0.0416667 55.845 1.99675e-07 
530 1 0.285669 0.0714628 0.0833638 55.845 -1.00222e-07 
531 1 0.321429 0.0714286 0.0416667 55.845 -3.57596e-07 
532 1 0.321436 0.107134 0.0834497 55.845 -1.51785e-07 
533 1 0.357143 0.107143 0.0416667 55.845 -1.84909e-08 
603 1 0.357143 0.0714286 0 55.845 -1.149e-07 
541 1 0.321429 0 0.0416667 55.845 8.16247e-07 
542 1 0.321404 0.0357398 0.0834645 55.845 -2.47689e-07 
543 1 0.357143 0.0357143 0.0416667 55.845 1.15159e-08 
544 1 0.357124 0.0714604 0.0834 55.845 1.22512e-07 
602 1 0.321429 0.0357143 0 55.845 -2.36347e-07 
596 1 0.285714 0.0714286 0 55.845 7.95138e-08 
597 1 0.321429 0.107143 0 55.845 1.17185e-07 
612 1 0.464286 0.0357143 0 55.845 -2.91537e-07 
611 1 0.428571 0 0 55.845 -6.85739e-08 
610 1 0.464286 0.107143 0 55.845 -2.15768e-07 
609 1 0.428571 0.0714286 0 55.845 -2.81077e-07 
608 1 0.392857 0.0357143 0 55.845 -1.98307e-07 
341 1 0.39285 0.0715085 0.208482 55.845 3.61173e-07 
343 1 0.428568 0.107186 0.20846 55.845 6.26773e-07 
348 1 0.392869 3.43794e-06 0.208437 55.845 4.70485e-07 
350 1 0.428504 0.0356774 0.208319 55.845 -1.54218e-07 
352 1 0.46431 0.0714741 0.208497 55.845 -7.25153e-08 
355 1 0.464249 -8.41137e-06 0.20839 55.845 -1.12402e-07 
443 1 0.392798 0.0713814 0.125288 55.845 -2.35539e-07 
444 1 0.392872 0.107158 0.166938 55.845 2.18887e-07 
445 1 0.42859 0.107186 0.125431 55.845 -1.76955e-07 
604 1 0.392857 0.107143 0 55.845 -9.72797e-08 
450 1 0.392874 8.97761e-06 0.125359 55.845 -8.72795e-08 
451 1 0.392825 0.035705 0.167012 55.845 4.42794e-07 
452 1 0.4286 0.0357522 0.125287 55.845 6.21209e-08 
453 1 0.428581 0.0714601 0.16699 55.845 3.74683e-07 
454 1 0.464253 0.0714123 0.125316 55.845 -4.94605e-08 
455 1 0.464309 0.107235 0.166919 55.845 2.47009e-07 
456 1 0.428539 -2.62913e-05 0.167024 55.845 -1.79433e-07 
457 1 0.464293 1.49807e-05 0.125359 55.845 9.45307e-08 
458 1 0.464251 0.0357978 0.167088 55.845 -5.32143e-08 
545 1 0.392857 0.0714286 0.0416667 55.845 7.18771e-08 
546 1 0.39291 0.107094 0.0833715 55.845 -2.33282e-07 
547 1 0.428571 0.107143 0.0416667 55.845 6.70212e-07 
552 1 0.392857 0 0.0416667 55.845 -5.31425e-08 
553 1 0.392865 0.0356216 0.0834059 55.845 -2.32229e-07 
554 1 0.428571 0.0357143 0.0416667 55.845 5.12945e-07 
555 1 0.42856 0.07145 0.083442 55.845 -5.99558e-07 
556 1 0.464286 0.0714286 0.0416667 55.845 7.94105e-07 
557 1 0.464269 0.107114 0.083433 55.845 -5.64739e-07 
558 1 0.428564 2.05892e-05 0.0834346 55.845 -4.54685e-07 
559 1 0.464286 0 0.0416667 55.845 4.46089e-07 
560 1 0.464357 0.0357602 0.0833269 55.845 -9.16379e-07 
255 1 -2.71142e-05 0.178568 0.20841 55.845 4.19749e-07 
257 1 0.0356862 0.2143 0.208524 55.845 2.5959e-07 
261 1 0.0357009 0.142906 0.208577 55.845 1.86782e-07 
263 1 0.0714512 0.178618 0.208378 55.845 5.98787e-07 
265 1 0.107089 0.214259 0.208367 55.845 9.21895e-07 
273 1 0.107071 0.142839 0.208492 55.845 7.97903e-07 
357 1 1.96792e-05 0.178566 0.125285 55.845 -1.24546e-08 
358 1 4.89855e-05 0.214354 0.167058 55.845 1.24762e-07 
359 1 0.0357005 0.214344 0.125203 55.845 1.33879e-07 
360 1 0.0357135 0.250024 0.16695 55.845 3.89582e-08 
362 1 -3.25134e-06 0.142898 0.167001 55.845 -5.79836e-08 
363 1 0.0357528 0.14288 0.125353 55.845 3.55329e-08 
364 1 0.0356242 0.178595 0.167159 55.845 -1.22296e-07 
365 1 0.0715024 0.178543 0.125359 55.845 -1.74165e-07 
366 1 0.0714217 0.214291 0.167008 55.845 -5.03457e-07 
367 1 0.107192 0.21433 0.125185 55.845 5.1783e-08 
368 1 0.107149 0.250024 0.166949 55.845 -3.23037e-07 
374 1 0.0713851 0.142889 0.167175 55.845 -2.14166e-07 
375 1 0.107128 0.14279 0.125369 55.845 -1.85084e-07 
376 1 0.107122 0.178571 0.166998 55.845 -1.09587e-07 
459 1 0 0.178571 0.0416667 55.845 3.32288e-07 
460 1 -1.02467e-05 0.214221 0.0834149 55.845 -3.02699e-07 
461 1 0.0357143 0.214286 0.0416667 55.845 1.52301e-07 
462 1 0.0357286 0.250061 0.0833268 55.845 -6.64285e-07 
464 1 -1.47119e-05 0.142849 0.0834309 55.845 -4.16922e-07 
465 1 0.0357143 0.142857 0.0416667 55.845 5.27013e-07 
466 1 0.0357406 0.178571 0.0835039 55.845 -6.78688e-07 
467 1 0.0714286 0.178571 0.0416667 55.845 -2.56937e-07 
468 1 0.0713867 0.214219 0.0834759 55.845 4.3999e-08 
469 1 0.107143 0.214286 0.0416667 55.845 -3.88191e-07 
470 1 0.107154 0.250016 0.0833739 55.845 -2.72578e-07 
476 1 0.0714115 0.14283 0.0834725 55.845 3.86671e-08 
477 1 0.107143 0.142857 0.0416667 55.845 9.67202e-08 
478 1 0.107126 0.178555 0.083409 55.845 -1.45792e-07 
561 1 0 0.214286 0 55.845 -4.33397e-07 
562 1 0.0357143 0.25 0 55.845 1.60656e-07 
563 1 0 0.142857 0 55.845 -3.74893e-07 
564 1 0.0357143 0.178571 0 55.845 2.77485e-07 
565 1 0.0714286 0.214286 0 55.845 1.33312e-07 
566 1 0.107143 0.25 0 55.845 3.86627e-07 
569 1 0.0714286 0.142857 0 55.845 -4.15034e-07 
570 1 0.107143 0.178571 0 55.845 3.96546e-07 
275 1 0.142806 0.178577 0.208391 55.845 1.02696e-06 
277 1 0.178559 0.21431 0.2085 55.845 8.29365e-07 
287 1 0.17858 0.142848 0.208418 55.845 9.39743e-07 
289 1 0.214316 0.178657 0.208473 55.845 5.35689e-07 
291 1 0.250099 0.214294 0.208462 55.845 2.14288e-07 
301 1 0.249897 0.142923 0.208413 55.845 6.60779e-07 
377 1 0.142856 0.178577 0.125387 55.845 -1.49363e-09 
378 1 0.14286 0.214294 0.167015 55.845 -2.21435e-07 
379 1 0.178572 0.214327 0.125287 55.845 8.72191e-08 
388 1 0.142892 0.142853 0.166945 55.845 -3.1579e-07 
389 1 0.178543 0.142838 0.125249 55.845 3.91256e-08 
390 1 0.178529 0.178539 0.167022 55.845 8.16343e-08 
391 1 0.214208 0.178577 0.12534 55.845 1.42042e-07 
392 1 0.214246 0.214283 0.167089 55.845 2.56938e-07 
393 1 0.249962 0.214264 0.125344 55.845 -9.38804e-08 
402 1 0.214252 0.142914 0.166948 55.845 -2.01734e-07 
403 1 0.249975 0.142803 0.125319 55.845 9.71051e-08 
404 1 0.250075 0.178503 0.166864 55.845 -3.665e-08 
479 1 0.142857 0.178571 0.0416667 55.845 -2.96335e-07 
480 1 0.142801 0.214282 0.0834002 55.845 1.3328e-07 
481 1 0.178571 0.214286 0.0416667 55.845 2.51231e-07 
490 1 0.142862 0.142849 0.0834184 55.845 1.57818e-07 
491 1 0.178571 0.142857 0.0416667 55.845 4.38837e-07 
492 1 0.178545 0.178546 0.0833997 55.845 -3.7849e-07 
493 1 0.214286 0.178571 0.0416667 55.845 2.42618e-07 
494 1 0.214329 0.214286 0.083453 55.845 -5.27529e-07 
495 1 0.25 0.214286 0.0416667 55.845 1.23277e-07 
504 1 0.214336 0.142912 0.0833993 55.845 -7.81552e-08 
505 1 0.25 0.142857 0.0416667 55.845 3.24915e-07 
506 1 0.250076 0.178559 0.0834169 55.845 -3.89695e-07 
571 1 0.142857 0.214286 0 55.845 4.56544e-08 
576 1 0.142857 0.142857 0 55.845 -4.97902e-07 
577 1 0.178571 0.178571 0 55.845 -1.56369e-07 
578 1 0.214286 0.214286 0 55.845 -4.03319e-07 
583 1 0.214286 0.142857 0 55.845 -3.58914e-07 
584 1 0.25 0.178571 0 55.845 1.24558e-07 
303 1 0.285735 0.178617 0.20847 55.845 6.02611e-07 
305 1 0.321436 0.214242 0.208474 55.845 7.84283e-07 
315 1 0.321431 0.142794 0.208393 55.845 9.69529e-07 
317 1 0.357155 0.178551 0.208411 55.845 1.03219e-06 
405 1 0.285754 0.178617 0.125331 55.845 -7.98279e-08 
406 1 0.28574 0.214308 0.167032 55.845 -2.56434e-07 
407 1 0.321444 0.214354 0.12531 55.845 -1.45843e-07 
416 1 0.285739 0.142909 0.167033 55.845 -5.23356e-07 
417 1 0.321373 0.142913 0.125321 55.845 -1.12033e-07 
418 1 0.32139 0.178615 0.167076 55.845 -4.816e-07 
419 1 0.357117 0.178606 0.125333 55.845 -8.97556e-08 
420 1 0.357194 0.214248 0.167064 55.845 -3.57852e-07 
432 1 0.357144 0.142887 0.167018 55.845 -4.03478e-07 
507 1 0.285714 0.178571 0.0416667 55.845 -1.10549e-07 
508 1 0.285691 0.214291 0.0834595 55.845 -1.21966e-07 
509 1 0.321429 0.214286 0.0416667 55.845 -2.73736e-07 
518 1 0.285717 0.142857 0.0833965 55.845 6.19597e-08 
519 1 0.321429 0.142857 0.0416667 55.845 9.86421e-09 
520 1 0.321414 0.178614 0.0834012 55.845 -3.91571e-08 
521 1 0.357143 0.178571 0.0416667 55.845 -6.72559e-08 
522 1 0.357118 0.214278 0.0833519 55.845 1.22567e-07 
534 1 0.357137 0.142878 0.083436 55.845 9.13322e-08 
585 1 0.285714 0.214286 0 55.845 -5.12407e-10 
590 1 0.285714 0.142857 0 55.845 1.95516e-07 
591 1 0.321429 0.178571 0 55.845 6.07767e-07 
592 1 0.357143 0.214286 0 55.845 1.97598e-07 
598 1 0.357143 0.142857 0 55.845 -8.95989e-08 
319 1 0.392883 0.214302 0.208602 55.845 6.58547e-07 
321 1 0.428561 0.249984 0.208373 55.845 4.59473e-07 
331 1 0.392965 0.142885 0.208412 55.845 8.17186e-07 
333 1 0.428666 0.178652 0.20862 55.845 7.06124e-07 
335 1 0.464234 0.214275 0.208419 55.845 1.06091e-07 
345 1 0.464317 0.142951 0.208476 55.845 6.25625e-07 
606 1 0.464286 0.178571 0 55.845 -2.90734e-07 
421 1 0.392882 0.214241 0.125281 55.845 5.79505e-08 
422 1 0.392798 0.249971 0.167137 55.845 -1.0954e-07 
423 1 0.428621 0.250069 0.125479 55.845 1.03046e-07 
433 1 0.392918 0.142816 0.125295 55.845 -1.88011e-07 
434 1 0.39289 0.178575 0.167117 55.845 -3.03317e-07 
435 1 0.428635 0.178608 0.125287 55.845 -4.09048e-08 
436 1 0.4285 0.21428 0.166915 55.845 -1.71545e-07 
437 1 0.464278 0.214405 0.125398 55.845 1.65921e-07 
605 1 0.428571 0.142857 0 55.845 -5.42508e-07 
446 1 0.428638 0.142945 0.166979 55.845 2.97229e-07 
447 1 0.46433 0.142947 0.125145 55.845 -1.79785e-07 
448 1 0.46433 0.178657 0.167066 55.845 7.55841e-08 
523 1 0.392857 0.214286 0.0416667 55.845 -1.10185e-07 
524 1 0.392912 0.250009 0.0834786 55.845 -2.82885e-07 
525 1 0.428571 0.25 0.0416667 55.845 2.73498e-07 
535 1 0.392857 0.142857 0.0416667 55.845 4.89843e-07 
536 1 0.392912 0.178558 0.0833493 55.845 -1.92216e-07 
537 1 0.428571 0.178571 0.0416667 55.845 2.91151e-07 
538 1 0.428579 0.214275 0.0834359 55.845 -4.10683e-07 
539 1 0.464286 0.214286 0.0416667 55.845 3.88395e-07 
548 1 0.428587 0.142811 0.0833648 55.845 -4.25115e-07 
549 1 0.464286 0.142857 0.0416667 55.845 7.95217e-07 
550 1 0.464344 0.17862 0.0833931 55.845 -5.69302e-07 
593 1 0.392857 0.25 0 55.845 -4.78977e-08 
599 1 0.392857 0.178571 0 55.845 1.44384e-07 
600 1 0.428571 0.214286 0 55.845 -1.76101e-07 
3 1 1.66686e-07 0.107169 0.460726 55.845 1.36424e-07 
7 1 1.80318e-06 0.0356587 0.460676 55.845 1.73272e-07 
8 1 0.035717 0.0715178 0.460631 55.845 1.43992e-07 
9 1 0.0714089 0.107137 0.460656 55.845 2.68984e-07 
13 1 0.0357489 6.03061e-05 0.460639 55.845 -3.35991e-07 
14 1 0.0714435 0.0357548 0.460643 55.845 1.60415e-07 
15 1 0.107072 0.0713817 0.460661 55.845 5.46287e-07 
20 1 0.107209 -2.34881e-05 0.460776 55.845 -3.94083e-08 
55 1 -8.22711e-05 0.107176 0.375923 55.845 -1.80338e-07 
63 1 -4.16018e-05 0.0357585 0.375912 55.845 -1.99491e-07 
64 1 -7.26016e-06 0.0714452 0.418134 55.845 -4.07433e-07 
65 1 0.0357021 0.0715073 0.376028 55.845 1.71445e-07 
66 1 0.0357082 0.107221 0.41805 55.845 1.09183e-08 
67 1 0.0714931 0.107177 0.375968 55.845 -1.1723e-07 
74 1 7.92237e-05 1.53881e-05 0.417997 55.845 -2.69149e-07 
75 1 0.0357983 5.95872e-05 0.37584 55.845 -9.92348e-08 
76 1 0.035694 0.0357368 0.418 55.845 -3.93947e-07 
77 1 0.0714267 0.035742 0.375909 55.845 -4.43856e-08 
78 1 0.0714291 0.0714513 0.417921 55.845 -5.18002e-07 
79 1 0.107168 0.0713831 0.37597 55.845 -2.58493e-07 
80 1 0.107086 0.107137 0.417941 55.845 1.56232e-08 
88 1 0.0714792 7.8696e-06 0.418057 55.845 -1.99985e-07 
89 1 0.107231 1.71382e-05 0.375917 55.845 -2.96117e-07 
90 1 0.10711 0.0356383 0.41803 55.845 3.09659e-08 
157 1 6.26576e-05 0.107099 0.292535 55.845 3.38519e-07 
165 1 -7.20889e-05 0.0357444 0.292409 55.845 4.294e-07 
166 1 3.37083e-05 0.0715007 0.334363 55.845 7.85706e-08 
167 1 0.0357397 0.0713662 0.29249 55.845 2.84659e-07 
168 1 0.0356947 0.10708 0.334411 55.845 -8.11853e-08 
169 1 0.0714753 0.107127 0.292473 55.845 3.51963e-07 
176 1 5.83373e-05 -4.2119e-05 0.33426 55.845 -3.55957e-09 
177 1 0.0357458 1.10938e-05 0.292414 55.845 2.54957e-07 
178 1 0.035718 0.0357919 0.334271 55.845 -2.78553e-07 
179 1 0.0714324 0.0357402 0.292393 55.845 1.50745e-07 
180 1 0.0714782 0.07144 0.334369 55.845 1.1365e-07 
181 1 0.107139 0.0715042 0.292522 55.845 2.26653e-07 
182 1 0.107153 0.107177 0.334451 55.845 3.18227e-08 
190 1 0.0714883 3.50474e-05 0.334336 55.845 -3.24753e-07 
191 1 0.107144 5.3078e-05 0.292538 55.845 4.60411e-07 
192 1 0.107106 0.0357222 0.334369 55.845 -1.39526e-07 
268 1 -3.37816e-05 0.0714595 0.250265 55.845 -1.05155e-07 
270 1 0.0356388 0.107155 0.250307 55.845 -3.05061e-07 
278 1 -2.37747e-05 -6.7599e-06 0.25027 55.845 -1.93085e-07 
280 1 0.0357308 0.0356305 0.250143 55.845 -3.09423e-07 
282 1 0.0714131 0.0713809 0.250252 55.845 -3.17275e-07 
284 1 0.107178 0.107207 0.250282 55.845 -9.40704e-07 
292 1 0.0715299 3.18207e-05 0.250245 55.845 -1.57783e-08 
294 1 0.107202 0.0357598 0.25033 55.845 -3.63705e-07 
16 1 0.142795 0.10708 0.460553 55.845 6.13669e-07 
21 1 0.142801 0.0357487 0.460607 55.845 3.82546e-07 
22 1 0.178523 0.0714247 0.460615 55.845 4.69676e-07 
23 1 0.214165 0.107114 0.460658 55.845 2.09052e-07 
27 1 0.17853 7.18397e-05 0.460667 55.845 2.70332e-07 
28 1 0.214272 0.0356895 0.460577 55.845 9.68395e-08 
29 1 0.24998 0.0714663 0.460656 55.845 9.50384e-08 
81 1 0.142811 0.107194 0.3759 55.845 -4.74041e-07 
91 1 0.14285 0.0357131 0.375945 55.845 -1.68863e-07 
92 1 0.142823 0.0714244 0.418018 55.845 -5.91165e-07 
93 1 0.178477 0.0715298 0.375975 55.845 -1.46634e-07 
94 1 0.17854 0.107221 0.418013 55.845 1.51959e-07 
95 1 0.214307 0.107178 0.375928 55.845 -8.96404e-08 
102 1 0.142877 2.51378e-05 0.418047 55.845 7.09837e-09 
103 1 0.178611 5.27233e-05 0.375916 55.845 -2.01683e-07 
104 1 0.17857 0.0357275 0.417949 55.845 -2.29997e-07 
105 1 0.214213 0.0356958 0.375979 55.845 7.07249e-08 
106 1 0.214291 0.0715016 0.418074 55.845 -4.05598e-07 
107 1 0.249902 0.0714131 0.375906 55.845 1.44888e-08 
108 1 0.249988 0.107093 0.418017 55.845 1.43874e-07 
118 1 0.214263 1.96966e-05 0.417902 55.845 -7.46995e-07 
120 1 0.250003 0.0357277 0.417993 55.845 -3.6196e-07 
183 1 0.142892 0.107186 0.292559 55.845 -4.33783e-08 
193 1 0.142908 0.0358069 0.292508 55.845 4.29689e-07 
194 1 0.142858 0.0714491 0.3343 55.845 2.50687e-07 
195 1 0.178554 0.0714528 0.292453 55.845 5.47105e-07 
196 1 0.178609 0.107172 0.334406 55.845 -6.70969e-08 
197 1 0.214296 0.107128 0.292381 55.845 4.25116e-07 
204 1 0.142939 2.78774e-05 0.334371 55.845 1.69064e-07 
205 1 0.178543 3.16684e-05 0.292427 55.845 6.62616e-07 
206 1 0.178566 0.0358118 0.334394 55.845 -1.25195e-07 
207 1 0.214293 0.0356952 0.292429 55.845 5.2873e-07 
208 1 0.214195 0.0714843 0.334384 55.845 -6.01961e-08 
209 1 0.249987 0.0714495 0.292605 55.845 7.87342e-07 
210 1 0.250031 0.107192 0.334242 55.845 -2.85287e-07 
220 1 0.214307 4.25097e-05 0.334262 55.845 -3.26115e-07 
222 1 0.249951 0.0357601 0.334256 55.845 -6.94506e-07 
296 1 0.14276 0.0715173 0.250124 55.845 -6.76939e-07 
298 1 0.178546 0.107132 0.250295 55.845 -9.34607e-07 
306 1 0.142821 8.44073e-05 0.250354 55.845 -4.005e-07 
308 1 0.178536 0.0357533 0.250274 55.845 -5.23534e-07 
310 1 0.214284 0.0714421 0.250227 55.845 -2.3661e-07 
312 1 0.249999 0.107177 0.250251 55.845 -6.96484e-08 
322 1 0.21426 4.69639e-05 0.250209 55.845 -2.49298e-07 
324 1 0.250044 0.0357624 0.250073 55.845 -2.70741e-07 
30 1 0.285687 0.107184 0.460724 55.845 -3.78628e-08 
35 1 0.249967 1.03025e-06 0.460697 55.845 1.30995e-07 
36 1 0.285685 0.03571 0.460531 55.845 4.8762e-08 
37 1 0.321449 0.0713782 0.460515 55.845 2.89288e-07 
38 1 0.35722 0.107046 0.460487 55.845 5.0162e-07 
42 1 0.321448 -2.15255e-05 0.460665 55.845 5.90111e-07 
43 1 0.357121 0.0357296 0.460711 55.845 7.9622e-07 
109 1 0.285778 0.107234 0.376069 55.845 -5.91282e-08 
119 1 0.250099 -4.23459e-06 0.375821 55.845 2.03131e-07 
121 1 0.285732 0.0357176 0.37594 55.845 1.22741e-07 
122 1 0.285653 0.0714202 0.417973 55.845 -2.77493e-07 
123 1 0.321397 0.0714634 0.37599 55.845 -1.90867e-07 
124 1 0.321447 0.107137 0.418097 55.845 1.12029e-07 
125 1 0.357202 0.107151 0.376051 55.845 -6.3579e-07 
133 1 0.321406 -1.05309e-06 0.375784 55.845 5.1733e-08 
134 1 0.321433 0.0356677 0.417896 55.845 3.92648e-08 
135 1 0.357176 0.0357924 0.375846 55.845 -3.51679e-07 
136 1 0.357146 0.0713548 0.417994 55.845 -2.05256e-07 
211 1 0.285745 0.107119 0.292594 55.845 7.19731e-07 
221 1 0.25003 -1.70609e-06 0.29233 55.845 4.31903e-07 
223 1 0.285735 0.035743 0.292456 55.845 3.82619e-07 
224 1 0.285775 0.0714838 0.334433 55.845 -1.63662e-07 
225 1 0.321494 0.0714568 0.292534 55.845 3.71876e-07 
226 1 0.321416 0.107142 0.334439 55.845 1.22446e-07 
227 1 0.357103 0.107257 0.292458 55.845 3.33013e-07 
235 1 0.321438 -6.84895e-05 0.292485 55.845 2.30429e-07 
236 1 0.321488 0.0357182 0.334293 55.845 -3.32569e-07 
237 1 0.357165 0.0357554 0.292338 55.845 1.97316e-07 
238 1 0.357132 0.071559 0.334389 55.845 1.27597e-08 
326 1 0.285723 0.0715006 0.250314 55.845 -1.75102e-07 
328 1 0.321448 0.107216 0.250269 55.845 -5.35567e-07 
338 1 0.321435 0.03583 0.250297 55.845 -6.08786e-07 
340 1 0.357138 0.0715277 0.250298 55.845 -7.4498e-07 
44 1 0.392848 0.0713312 0.460743 55.845 4.80113e-07 
45 1 0.428514 0.107254 0.460685 55.845 4.35841e-07 
47 1 0.392864 2.03424e-05 0.46061 55.845 3.62239e-07 
48 1 0.428554 0.0357655 0.46073 55.845 -3.34159e-08 
49 1 0.464301 0.071465 0.460661 55.845 -7.67271e-09 
50 1 0.464309 5.4981e-06 0.460642 55.845 -3.18023e-07 
137 1 0.392952 0.0713854 0.375933 55.845 -2.04282e-08 
138 1 0.39292 0.107132 0.418009 55.845 -2.20566e-07 
139 1 0.428642 0.107046 0.375899 55.845 6.70615e-08 
144 1 0.392919 3.9037e-05 0.375862 55.845 -8.05728e-08 
145 1 0.392905 0.0356823 0.417983 55.845 -1.82237e-07 
146 1 0.4286 0.035799 0.375938 55.845 2.52877e-07 
147 1 0.428561 0.0714509 0.418064 55.845 -5.66712e-07 
148 1 0.46427 0.0714257 0.375987 55.845 5.00636e-07 
149 1 0.46434 0.107142 0.417991 55.845 -6.37741e-07 
150 1 0.428582 4.36037e-05 0.41791 55.845 -1.52053e-07 
151 1 0.464334 3.64639e-05 0.375943 55.845 5.52525e-07 
152 1 0.464245 0.0357543 0.418093 55.845 -5.9682e-07 
239 1 0.392859 0.0714227 0.292462 55.845 2.09142e-07 
240 1 0.39288 0.107155 0.334246 55.845 2.52948e-07 
241 1 0.428483 0.107127 0.292341 55.845 3.05004e-07 
246 1 0.392866 1.88591e-05 0.292344 55.845 1.60423e-07 
247 1 0.392858 0.0357592 0.334233 55.845 -1.82576e-07 
248 1 0.428578 0.0357011 0.292387 55.845 1.87943e-07 
249 1 0.428565 0.0714041 0.334226 55.845 -3.2471e-07 
250 1 0.464289 0.0714298 0.292412 55.845 1.78206e-07 
251 1 0.464312 0.10716 0.334215 55.845 2.49582e-07 
252 1 0.428621 -5.84652e-06 0.334223 55.845 -3.96822e-07 
253 1 0.464281 5.91648e-06 0.292461 55.845 3.65427e-07 
254 1 0.464229 0.0357473 0.334135 55.845 -6.39592e-07 
342 1 0.39283 0.107185 0.250206 55.845 -5.51085e-07 
349 1 0.392801 0.0358136 0.250272 55.845 -5.58074e-07 
351 1 0.428573 0.071392 0.250194 55.845 -1.63197e-07 
353 1 0.464226 0.107181 0.250323 55.845 -2.07887e-07 
354 1 0.428548 7.12008e-05 0.250078 55.845 2.02304e-08 
356 1 0.464224 0.0357938 0.250165 55.845 3.46448e-07 
1 1 1.20805e-05 0.178493 0.460696 55.845 1.19927e-07 
2 1 0.0357132 0.214306 0.460624 55.845 1.27746e-07 
4 1 0.0356807 0.142816 0.460645 55.845 -1.26797e-08 
5 1 0.0714928 0.178654 0.460731 55.845 1.34246e-07 
6 1 0.107142 0.214281 0.460676 55.845 3.904e-07 
10 1 0.107223 0.142763 0.460538 55.845 2.70904e-07 
51 1 -2.82096e-07 0.178597 0.375897 55.845 1.32946e-07 
52 1 -2.84292e-05 0.214254 0.418074 55.845 -2.19929e-07 
53 1 0.0356104 0.214294 0.375892 55.845 3.86248e-08 
54 1 0.0357843 0.249951 0.418101 55.845 -1.81875e-07 
56 1 6.08431e-05 0.142866 0.417957 55.845 -1.87505e-07 
57 1 0.0357431 0.142814 0.375829 55.845 1.25413e-07 
58 1 0.0357505 0.178547 0.418052 55.845 -3.22209e-07 
59 1 0.0713487 0.178486 0.375806 55.845 -1.00266e-07 
60 1 0.0714594 0.214316 0.417931 55.845 -2.85665e-07 
61 1 0.107139 0.214372 0.375833 55.845 -2.47507e-07 
62 1 0.107058 0.250031 0.418092 55.845 8.95113e-09 
68 1 0.0714292 0.142899 0.418109 55.845 -1.71421e-07 
69 1 0.107102 0.142935 0.376009 55.845 -3.03238e-07 
70 1 0.107076 0.17868 0.417986 55.845 -1.36434e-09 
153 1 -4.3335e-05 0.178703 0.292417 55.845 9.6616e-08 
154 1 3.23202e-05 0.21434 0.334415 55.845 -1.86743e-07 
155 1 0.0356952 0.214355 0.292403 55.845 3.35342e-07 
156 1 0.0357123 0.250041 0.334336 55.845 -4.40436e-07 
158 1 6.9444e-05 0.142888 0.334326 55.845 -8.87916e-08 
159 1 0.0356921 0.142919 0.292488 55.845 3.3499e-07 
160 1 0.0356558 0.178599 0.334339 55.845 -3.15324e-07 
161 1 0.0714457 0.178585 0.292393 55.845 6.06948e-07 
162 1 0.0714381 0.214248 0.334365 55.845 -1.22615e-07 
163 1 0.107152 0.214306 0.292308 55.845 6.22933e-07 
164 1 0.107042 0.249983 0.334368 55.845 -2.53765e-07 
170 1 0.0714652 0.142829 0.334419 55.845 8.79969e-08 
171 1 0.107142 0.142874 0.29247 55.845 1.79009e-07 
172 1 0.107123 0.178656 0.334323 55.845 1.05522e-07 
256 1 -5.06112e-05 0.21437 0.250199 55.845 -7.53873e-08 
258 1 0.0356917 0.250007 0.250128 55.845 -1.74539e-07 
260 1 4.71817e-06 0.142917 0.250406 55.845 1.03323e-07 
262 1 0.0356583 0.178644 0.250443 55.845 -2.56163e-07 
264 1 0.0714756 0.214291 0.250088 55.845 -3.8598e-07 
266 1 0.107131 0.250004 0.250124 55.845 -3.84535e-07 
272 1 0.0714513 0.14281 0.250261 55.845 -2.00229e-07 
274 1 0.107075 0.178587 0.250254 55.845 -8.06335e-07 
11 1 0.142782 0.178614 0.46053 55.845 7.96268e-07 
12 1 0.178549 0.214319 0.460672 55.845 6.726e-07 
17 1 0.178525 0.142901 0.460668 55.845 5.67671e-07 
18 1 0.214282 0.178612 0.460512 55.845 4.20764e-07 
19 1 0.249988 0.214343 0.460584 55.845 2.34028e-07 
24 1 0.249919 0.14285 0.460527 55.845 1.83831e-07 
71 1 0.14285 0.178689 0.375963 55.845 -2.81635e-07 
72 1 0.142837 0.214317 0.417966 55.845 -3.98102e-07 
73 1 0.178571 0.214356 0.375951 55.845 7.02869e-08 
82 1 0.142814 0.142925 0.418039 55.845 -3.00574e-07 
83 1 0.178509 0.142876 0.375904 55.845 -3.03899e-07 
84 1 0.178544 0.178639 0.417976 55.845 -2.58868e-07 
85 1 0.214185 0.178616 0.375763 55.845 -6.90284e-08 
86 1 0.214308 0.214303 0.41794 55.845 -7.36229e-07 
87 1 0.249984 0.214274 0.375962 55.845 1.10427e-07 
96 1 0.214283 0.14292 0.417941 55.845 -1.55958e-07 
97 1 0.249928 0.142812 0.375809 55.845 -1.41905e-07 
98 1 0.249911 0.178579 0.417976 55.845 -2.07566e-07 
173 1 0.142791 0.178629 0.292448 55.845 2.88424e-07 
174 1 0.142807 0.214285 0.334229 55.845 2.39624e-07 
175 1 0.178576 0.214338 0.292337 55.845 4.14018e-07 
184 1 0.142759 0.142895 0.334384 55.845 3.26825e-07 
185 1 0.178535 0.142878 0.292413 55.845 8.50659e-08 
186 1 0.17849 0.17862 0.334309 55.845 -7.45037e-08 
187 1 0.214222 0.178537 0.292546 55.845 1.9379e-07 
188 1 0.214259 0.214322 0.334147 55.845 -2.58706e-07 
189 1 0.250008 0.214272 0.292565 55.845 2.52904e-07 
198 1 0.214242 0.142823 0.334293 55.845 5.47962e-09 
199 1 0.250006 0.14289 0.292429 55.845 3.18653e-07 
200 1 0.249985 0.178581 0.334315 55.845 -3.5144e-07 
276 1 0.142826 0.214316 0.250123 55.845 -4.7148e-07 
286 1 0.142815 0.142877 0.250259 55.845 -7.75705e-07 
288 1 0.178481 0.178597 0.250185 55.845 -7.31209e-07 
290 1 0.214322 0.214357 0.250385 55.845 -5.32216e-07 
300 1 0.214263 0.142917 0.250249 55.845 -3.57524e-07 
302 1 0.250016 0.178555 0.250313 55.845 -5.54652e-07 
25 1 0.285648 0.178534 0.460675 55.845 8.62471e-08 
26 1 0.321412 0.214311 0.460512 55.845 3.81598e-07 
31 1 0.321387 0.1429 0.460568 55.845 2.62744e-07 
32 1 0.357107 0.178583 0.460723 55.845 4.33291e-07 
99 1 0.285672 0.178533 0.375836 55.845 -1.48457e-07 
100 1 0.285716 0.214244 0.417983 55.845 -7.1453e-07 
101 1 0.321393 0.214281 0.37579 55.845 -3.3211e-07 
110 1 0.285681 0.142851 0.418104 55.845 3.01161e-08 
111 1 0.321477 0.142801 0.375994 55.845 -6.55545e-07 
112 1 0.321412 0.178579 0.418086 55.845 -2.15238e-07 
113 1 0.357205 0.178598 0.37587 55.845 -4.04592e-07 
114 1 0.35712 0.214261 0.417983 55.845 -1.72935e-07 
126 1 0.357207 0.142908 0.418031 55.845 -1.19511e-07 
201 1 0.285757 0.178534 0.292475 55.845 4.75266e-07 
202 1 0.285728 0.214203 0.334207 55.845 -2.88618e-07 
203 1 0.321385 0.214299 0.292374 55.845 6.10265e-07 
212 1 0.285752 0.142853 0.334348 55.845 9.915e-08 
213 1 0.321426 0.142791 0.292451 55.845 3.37042e-07 
214 1 0.321471 0.178525 0.3343 55.845 1.74674e-07 
215 1 0.357092 0.178569 0.292502 55.845 4.19685e-07 