ITEM: TIMESTEP
7600
ITEM: NUMBER OF ATOMS
5880
ITEM: BOX BOUNDS pp pp ff
-27.9248 27.9248
-27.9248 27.9248
0 34.092
ITEM: ATOMS id type xs ys zs mass q 
259 1 3.83637e-05 0.107113 0.210797 55.845 9.59386e-08 
267 1 -0.00012323 0.0357333 0.210633 55.845 1.27683e-07 
269 1 0.0357081 0.0715674 0.210773 55.845 9.52665e-08 
271 1 0.0714329 0.107145 0.210917 55.845 6.42877e-08 
279 1 0.0357094 9.98539e-06 0.21058 55.845 1.07527e-07 
281 1 0.0714767 0.0357423 0.210657 55.845 9.59033e-08 
283 1 0.107084 0.0714343 0.210868 55.845 6.71722e-08 
293 1 0.10714 -9.54895e-05 0.210654 55.845 9.4627e-08 
361 1 3.50746e-05 0.10714 0.126874 55.845 9.74137e-08 
369 1 -9.45312e-06 0.0356235 0.12686 55.845 9.82647e-08 
370 1 4.04213e-05 0.0714221 0.169823 55.845 -9.62815e-08 
371 1 0.0356793 0.0713254 0.126903 55.845 8.0345e-08 
372 1 0.0357236 0.107188 0.169695 55.845 -7.09631e-08 
373 1 0.0713829 0.107209 0.126684 55.845 5.9359e-08 
380 1 4.51828e-05 -2.96402e-05 0.169623 55.845 -4.46746e-08 
381 1 0.0357022 -7.95476e-07 0.126706 55.845 9.29307e-08 
382 1 0.0357338 0.0358203 0.169899 55.845 -3.84258e-08 
383 1 0.0714484 0.0357928 0.126811 55.845 7.72975e-08 
384 1 0.0714869 0.0715087 0.169681 55.845 -2.06211e-08 
385 1 0.10715 0.0715016 0.126843 55.845 6.71421e-08 
386 1 0.107011 0.107172 0.169737 55.845 -6.20552e-09 
394 1 0.0713791 0.000110452 0.169735 55.845 -5.47277e-08 
395 1 0.107057 4.30577e-05 0.126896 55.845 8.72239e-08 
396 1 0.107086 0.0357404 0.169723 55.845 -1.21422e-08 
463 1 0 0.107143 0.0416667 55.845 1.25459e-07 
471 1 0 0.0357143 0.0416667 55.845 9.92391e-08 
472 1 -2.03065e-05 0.0714204 0.0844423 55.845 -3.37641e-07 
473 1 0.0357143 0.0714286 0.0416667 55.845 1.13869e-07 
474 1 0.0356618 0.107159 0.0844353 55.845 -2.9047e-07 
475 1 0.0714286 0.107143 0.0416667 55.845 1.20566e-07 
482 1 -5.56413e-05 5.59053e-06 0.0844472 55.845 -2.97321e-07 
483 1 0.0357143 0 0.0416667 55.845 1.09141e-07 
484 1 0.0357255 0.0356283 0.0842459 55.845 -3.00567e-07 
485 1 0.0714286 0.0357143 0.0416667 55.845 1.23138e-07 
486 1 0.0714395 0.0713557 0.0843081 55.845 -2.54788e-07 
487 1 0.107143 0.0714286 0.0416667 55.845 1.39721e-07 
488 1 0.107092 0.107156 0.0845369 55.845 -2.60633e-07 
496 1 0.0714107 9.38776e-05 0.0844797 55.845 -3.10616e-07 
497 1 0.107143 0 0.0416667 55.845 1.01368e-07 
498 1 0.107145 0.035713 0.0844157 55.845 -2.38326e-07 
567 1 0 0.0714286 0 55.845 4.26862e-08 
568 1 0.0357143 0.107143 0 55.845 9.54961e-08 
572 1 0 0 0 55.845 7.45112e-08 
573 1 0.0357143 0.0357143 0 55.845 7.2318e-08 
574 1 0.0714286 0.0714286 0 55.845 1.08839e-07 
575 1 0.107143 0.107143 0 55.845 9.20919e-08 
579 1 0.0714286 0 0 55.845 5.47548e-08 
580 1 0.107143 0.0357143 0 55.845 1.08618e-07 
285 1 0.142826 0.107221 0.2107 55.845 7.74693e-08 
295 1 0.142795 0.0357104 0.210754 55.845 9.60028e-08 
297 1 0.178609 0.0713164 0.210702 55.845 1.01352e-07 
299 1 0.214249 0.107217 0.210571 55.845 9.92559e-08 
307 1 0.178478 -0.000103917 0.210647 55.845 1.36921e-07 
309 1 0.214381 0.0357388 0.210759 55.845 1.22688e-07 
311 1 0.250025 0.0714695 0.210621 55.845 1.02801e-07 
387 1 0.14287 0.107133 0.126812 55.845 6.33576e-08 
397 1 0.142804 0.0357329 0.126944 55.845 1.18597e-07 
398 1 0.142867 0.0715364 0.169768 55.845 1.95541e-08 
399 1 0.178501 0.0714308 0.126785 55.845 1.08152e-07 
400 1 0.178588 0.107124 0.169735 55.845 5.62395e-09 
401 1 0.214246 0.107134 0.126791 55.845 9.43264e-08 
408 1 0.14291 4.92107e-05 0.169722 55.845 -4.0369e-08 
409 1 0.178505 -9.68424e-06 0.126868 55.845 1.65264e-07 
410 1 0.178523 0.0356582 0.169944 55.845 -7.54925e-09 
411 1 0.214235 0.0357756 0.12689 55.845 1.30875e-07 
412 1 0.214339 0.0713733 0.169736 55.845 -3.36219e-08 
413 1 0.250019 0.071387 0.126876 55.845 8.39889e-08 
414 1 0.249991 0.107141 0.169727 55.845 -4.97113e-08 
424 1 0.214267 8.92124e-05 0.169602 55.845 -3.89293e-08 
426 1 0.249968 0.0356345 0.169715 55.845 -5.15536e-08 
489 1 0.142857 0.107143 0.0416667 55.845 1.06684e-07 
499 1 0.142857 0.0357143 0.0416667 55.845 1.56674e-07 
500 1 0.142851 0.0714329 0.084302 55.845 -2.13009e-07 
501 1 0.178571 0.0714286 0.0416667 55.845 1.40877e-07 
502 1 0.178541 0.107282 0.0843946 55.845 -2.59406e-07 
503 1 0.214286 0.107143 0.0416667 55.845 1.07908e-07 
510 1 0.142781 5.07732e-05 0.0844605 55.845 -2.74801e-07 
511 1 0.178571 0 0.0416667 55.845 1.27835e-07 
512 1 0.178559 0.0357426 0.0842384 55.845 -2.41628e-07 
513 1 0.214286 0.0357143 0.0416667 55.845 1.17326e-07 
514 1 0.214374 0.071482 0.084435 55.845 -2.7775e-07 
515 1 0.25 0.0714286 0.0416667 55.845 7.93797e-08 
516 1 0.25003 0.107119 0.0843176 55.845 -2.96597e-07 
526 1 0.21422 -6.09379e-05 0.084295 55.845 -2.89368e-07 
528 1 0.249999 0.0357819 0.0845136 55.845 -2.91367e-07 
581 1 0.142857 0.0714286 0 55.845 1.26634e-07 
582 1 0.178571 0.107143 0 55.845 8.79912e-08 
586 1 0.142857 0 0 55.845 6.05146e-08 
587 1 0.178571 0.0357143 0 55.845 9.22173e-08 
588 1 0.214286 0.0714286 0 55.845 7.28416e-08 
589 1 0.25 0.107143 0 55.845 6.36966e-08 
594 1 0.214286 0 0 55.845 2.98251e-08 
595 1 0.25 0.0357143 0 55.845 3.86957e-08 
313 1 0.285603 0.107111 0.210737 55.845 1.30657e-07 
323 1 0.250009 4.47334e-05 0.210833 55.845 1.50267e-07 
325 1 0.28572 0.0357918 0.210751 55.845 1.31556e-07 
327 1 0.321485 0.0714036 0.210691 55.845 1.40238e-07 
329 1 0.357316 0.107066 0.210774 55.845 1.43628e-07 
337 1 0.321312 5.81507e-06 0.21087 55.845 1.21212e-07 
339 1 0.357086 0.0356122 0.210819 55.845 1.27496e-07 
415 1 0.285742 0.107048 0.126809 55.845 1.04236e-07 
425 1 0.249986 -2.85091e-05 0.126933 55.845 1.67012e-07 
427 1 0.285764 0.0356113 0.126914 55.845 1.20855e-07 
428 1 0.285685 0.0714434 0.169611 55.845 -3.00375e-08 
429 1 0.321374 0.0713595 0.126799 55.845 1.11402e-07 
430 1 0.321504 0.107087 0.169913 55.845 1.66961e-08 
431 1 0.357192 0.10702 0.126969 55.845 1.17939e-07 
439 1 0.321325 8.39968e-06 0.126889 55.845 1.36275e-07 
440 1 0.3214 0.0355938 0.169953 55.845 -2.19166e-08 
441 1 0.35713 0.0357085 0.126815 55.845 1.18062e-07 
442 1 0.357132 0.0713834 0.169864 55.845 7.52848e-09 
517 1 0.285714 0.107143 0.0416667 55.845 8.3843e-08 
527 1 0.25 0 0.0416667 55.845 1.0597e-07 
529 1 0.285714 0.0357143 0.0416667 55.845 8.98984e-08 
530 1 0.285734 0.0713336 0.0844473 55.845 -2.91475e-07 
531 1 0.321429 0.0714286 0.0416667 55.845 7.66789e-08 
532 1 0.321513 0.107192 0.0844016 55.845 -2.59142e-07 
533 1 0.357143 0.107143 0.0416667 55.845 7.91327e-08 
603 1 0.357143 0.0714286 0 55.845 5.60421e-08 
541 1 0.321429 0 0.0416667 55.845 1.22447e-07 
542 1 0.321391 0.0356418 0.084362 55.845 -2.61746e-07 
543 1 0.357143 0.0357143 0.0416667 55.845 8.77186e-08 
544 1 0.357116 0.071409 0.0843924 55.845 -2.5205e-07 
602 1 0.321429 0.0357143 0 55.845 5.51321e-08 
596 1 0.285714 0.0714286 0 55.845 3.85035e-08 
597 1 0.321429 0.107143 0 55.845 5.77155e-08 
612 1 0.464286 0.0357143 0 55.845 5.24488e-08 
611 1 0.428571 0 0 55.845 3.63822e-08 
610 1 0.464286 0.107143 0 55.845 7.21348e-08 
609 1 0.428571 0.0714286 0 55.845 6.51798e-08 
608 1 0.392857 0.0357143 0 55.845 4.90597e-08 
341 1 0.39286 0.0714429 0.210764 55.845 1.42759e-07 
343 1 0.428525 0.107156 0.210847 55.845 1.57763e-07 
348 1 0.392839 -4.48539e-05 0.210685 55.845 1.38516e-07 
350 1 0.428583 0.0357002 0.210659 55.845 1.65765e-07 
352 1 0.464367 0.0714312 0.210873 55.845 1.78735e-07 
355 1 0.464288 -9.69602e-05 0.210724 55.845 1.52844e-07 
443 1 0.392865 0.0713814 0.126795 55.845 1.36734e-07 
444 1 0.392878 0.107141 0.16969 55.845 -2.63646e-08 
445 1 0.428568 0.107251 0.126881 55.845 1.54496e-07 
604 1 0.392857 0.107143 0 55.845 5.74274e-08 
450 1 0.392864 -6.73478e-05 0.126817 55.845 1.03753e-07 
451 1 0.392839 0.0356872 0.169741 55.845 -1.71903e-08 
452 1 0.428552 0.0356525 0.126844 55.845 1.36558e-07 
453 1 0.428612 0.0714161 0.169774 55.845 -2.14012e-08 
454 1 0.464306 0.0714597 0.126935 55.845 1.60013e-07 
455 1 0.464224 0.107265 0.169708 55.845 -6.30884e-08 
456 1 0.428542 -2.41586e-05 0.169637 55.845 -5.25493e-08 
457 1 0.46429 -3.19376e-05 0.126817 55.845 1.21085e-07 
458 1 0.464317 0.0356713 0.169668 55.845 -6.50508e-08 
545 1 0.392857 0.0714286 0.0416667 55.845 9.08911e-08 
546 1 0.392854 0.107199 0.0843398 55.845 -2.75166e-07 
547 1 0.428571 0.107143 0.0416667 55.845 1.04577e-07 
552 1 0.392857 0 0.0416667 55.845 6.599e-08 
553 1 0.392778 0.0356928 0.0843524 55.845 -2.79512e-07 
554 1 0.428571 0.0357143 0.0416667 55.845 8.52381e-08 
555 1 0.428622 0.0714268 0.0846521 55.845 -2.67511e-07 
556 1 0.464286 0.0714286 0.0416667 55.845 9.85738e-08 
557 1 0.464338 0.107074 0.084301 55.845 -2.9238e-07 
558 1 0.428584 -3.0987e-06 0.0842821 55.845 -3.22258e-07 
559 1 0.464286 0 0.0416667 55.845 9.68914e-08 
560 1 0.464282 0.035639 0.084488 55.845 -3.22271e-07 
255 1 -6.68856e-05 0.178497 0.210737 55.845 1.08169e-07 
257 1 0.0357027 0.214369 0.210701 55.845 7.89149e-08 
261 1 0.0357731 0.142817 0.210717 55.845 8.73555e-08 
263 1 0.0714309 0.178668 0.210866 55.845 6.98729e-08 
265 1 0.107068 0.214395 0.210756 55.845 7.10511e-08 
273 1 0.107127 0.142796 0.210778 55.845 5.78975e-08 
357 1 -1.39805e-05 0.178607 0.126816 55.845 1.51091e-07 
358 1 -7.80144e-05 0.214168 0.169717 55.845 -5.90641e-08 
359 1 0.035621 0.214401 0.126924 55.845 9.77977e-08 
360 1 0.0356727 0.250053 0.16981 55.845 -4.63587e-08 
362 1 0.000117893 0.142842 0.16987 55.845 -9.95333e-08 
363 1 0.0356875 0.142896 0.126763 55.845 1.12448e-07 
364 1 0.035767 0.178657 0.169742 55.845 -5.29758e-08 
365 1 0.0714873 0.178574 0.126934 55.845 6.94772e-08 
366 1 0.0713741 0.214253 0.169658 55.845 -3.2857e-08 
367 1 0.107095 0.214295 0.126905 55.845 6.85344e-08 
368 1 0.10713 0.250054 0.169879 55.845 1.72066e-08 
374 1 0.071425 0.142815 0.169727 55.845 -3.77494e-08 
375 1 0.107124 0.142911 0.126897 55.845 3.17497e-08 
376 1 0.107107 0.178551 0.169785 55.845 -2.29844e-08 
459 1 0 0.178571 0.0416667 55.845 1.76322e-07 
460 1 2.63444e-05 0.21444 0.0843803 55.845 -2.93132e-07 
461 1 0.0357143 0.214286 0.0416667 55.845 1.25576e-07 
462 1 0.0356538 0.25 0.0843487 55.845 -3.09617e-07 
464 1 -4.5275e-05 0.142833 0.0842941 55.845 -2.89555e-07 
465 1 0.0357143 0.142857 0.0416667 55.845 1.65392e-07 
466 1 0.0357088 0.178648 0.0842833 55.845 -2.7031e-07 
467 1 0.0714286 0.178571 0.0416667 55.845 1.07347e-07 
468 1 0.0713928 0.214368 0.0844447 55.845 -2.95723e-07 
469 1 0.107143 0.214286 0.0416667 55.845 8.1829e-08 
470 1 0.107107 0.250077 0.0843779 55.845 -2.60301e-07 
476 1 0.0714214 0.142921 0.0843687 55.845 -2.88662e-07 
477 1 0.107143 0.142857 0.0416667 55.845 6.48912e-08 
478 1 0.10714 0.178578 0.0845642 55.845 -3.1881e-07 
561 1 0 0.214286 0 55.845 5.34977e-08 
562 1 0.0357143 0.25 0 55.845 2.60386e-08 
563 1 0 0.142857 0 55.845 9.52073e-08 
564 1 0.0357143 0.178571 0 55.845 9.5916e-08 
565 1 0.0714286 0.214286 0 55.845 4.08191e-08 
566 1 0.107143 0.25 0 55.845 5.10376e-08 
569 1 0.0714286 0.142857 0 55.845 8.37144e-08 
570 1 0.107143 0.178571 0 55.845 2.58836e-08 
275 1 0.142768 0.178599 0.210734 55.845 1.02804e-07 
277 1 0.178617 0.214305 0.2107 55.845 1.31045e-07 
287 1 0.178585 0.142965 0.210705 55.845 1.20449e-07 
289 1 0.214222 0.178569 0.210603 55.845 1.35119e-07 
291 1 0.249979 0.214261 0.210822 55.845 1.0445e-07 
301 1 0.249949 0.14284 0.210709 55.845 1.25228e-07 
377 1 0.142879 0.178553 0.126704 55.845 6.93018e-08 
378 1 0.142911 0.214249 0.169569 55.845 1.97389e-08 
379 1 0.178636 0.214289 0.126768 55.845 1.37692e-07 
388 1 0.142888 0.14286 0.169651 55.845 4.85006e-09 
389 1 0.178554 0.142916 0.12684 55.845 9.83652e-08 
390 1 0.178544 0.178577 0.169818 55.845 8.84803e-09 
391 1 0.214313 0.178548 0.12667 55.845 1.38162e-07 
392 1 0.214269 0.214247 0.169693 55.845 -3.03375e-08 
393 1 0.250084 0.214223 0.126883 55.845 9.39875e-08 
402 1 0.214346 0.142813 0.169688 55.845 -2.34209e-08 
403 1 0.250075 0.142892 0.126737 55.845 1.16327e-07 
404 1 0.249951 0.178609 0.16974 55.845 -5.17789e-08 
479 1 0.142857 0.178571 0.0416667 55.845 7.36238e-08 
480 1 0.142865 0.214322 0.0842865 55.845 -2.79511e-07 
481 1 0.178571 0.214286 0.0416667 55.845 1.42095e-07 
490 1 0.142867 0.142844 0.0842159 55.845 -2.95908e-07 
491 1 0.178571 0.142857 0.0416667 55.845 1.0559e-07 
492 1 0.17857 0.178474 0.0843426 55.845 -2.78379e-07 
493 1 0.214286 0.178571 0.0416667 55.845 1.44734e-07 
494 1 0.214317 0.214314 0.0844831 55.845 -2.93431e-07 
495 1 0.25 0.214286 0.0416667 55.845 1.07821e-07 
504 1 0.214295 0.142887 0.0844744 55.845 -2.7598e-07 
505 1 0.25 0.142857 0.0416667 55.845 1.28082e-07 
506 1 0.249994 0.178548 0.0843927 55.845 -2.96636e-07 
571 1 0.142857 0.214286 0 55.845 5.53087e-08 
576 1 0.142857 0.142857 0 55.845 4.4946e-08 
577 1 0.178571 0.178571 0 55.845 7.02284e-08 
578 1 0.214286 0.214286 0 55.845 8.37066e-08 
583 1 0.214286 0.142857 0 55.845 8.73171e-08 
584 1 0.25 0.178571 0 55.845 9.35088e-08 
303 1 0.285569 0.17852 0.21077 55.845 1.32615e-07 
305 1 0.321371 0.214306 0.210782 55.845 1.17173e-07 
315 1 0.321461 0.142825 0.210773 55.845 1.52866e-07 
317 1 0.357161 0.178656 0.210629 55.845 1.33542e-07 
405 1 0.285676 0.178527 0.127045 55.845 1.20062e-07 
406 1 0.285697 0.214245 0.169945 55.845 -8.48982e-08 
407 1 0.321438 0.214299 0.126873 55.845 9.62383e-08 
416 1 0.285738 0.14275 0.169847 55.845 -2.17607e-08 
417 1 0.321384 0.142716 0.126871 55.845 1.29864e-07 
418 1 0.32133 0.178603 0.169665 55.845 -3.91282e-08 
419 1 0.357094 0.178477 0.127004 55.845 1.19749e-07 
420 1 0.357105 0.214354 0.169599 55.845 -7.09303e-08 
432 1 0.357068 0.14285 0.169794 55.845 -1.70304e-08 
507 1 0.285714 0.178571 0.0416667 55.845 1.22763e-07 
508 1 0.28571 0.214233 0.0844367 55.845 -3.33579e-07 
509 1 0.321429 0.214286 0.0416667 55.845 9.01619e-08 
518 1 0.285751 0.142803 0.0843066 55.845 -2.71146e-07 
519 1 0.321429 0.142857 0.0416667 55.845 1.05074e-07 
520 1 0.321402 0.178547 0.0844393 55.845 -2.80133e-07 
521 1 0.357143 0.178571 0.0416667 55.845 9.07946e-08 
522 1 0.357114 0.214269 0.0843229 55.845 -2.85559e-07 
534 1 0.35711 0.142797 0.0844852 55.845 -2.77091e-07 
585 1 0.285714 0.214286 0 55.845 5.31775e-08 
590 1 0.285714 0.142857 0 55.845 8.61773e-08 
591 1 0.321429 0.178571 0 55.845 8.02305e-08 
592 1 0.357143 0.214286 0 55.845 6.90275e-08 
598 1 0.357143 0.142857 0 55.845 5.34627e-08 
319 1 0.392765 0.214333 0.21067 55.845 1.33879e-07 
321 1 0.428463 0.249943 0.210678 55.845 1.48105e-07 
331 1 0.392847 0.142861 0.210672 55.845 1.34525e-07 
333 1 0.428534 0.178648 0.210853 55.845 1.38319e-07 
335 1 0.464313 0.214283 0.210965 55.845 1.65885e-07 
345 1 0.464298 0.142822 0.210799 55.845 1.81363e-07 
606 1 0.464286 0.178571 0 55.845 4.48518e-08 
421 1 0.392838 0.214179 0.126794 55.845 1.37525e-07 
422 1 0.392836 0.249982 0.169792 55.845 -8.72925e-08 
423 1 0.428561 0.250049 0.126851 55.845 1.57898e-07 
433 1 0.392804 0.142841 0.1268 55.845 1.06043e-07 
434 1 0.392881 0.178564 0.16969 55.845 -9.69354e-08 
435 1 0.428498 0.178554 0.12693 55.845 1.21841e-07 
436 1 0.428556 0.214178 0.169785 55.845 -1.4803e-07 
437 1 0.464339 0.214331 0.126835 55.845 1.39348e-07 
605 1 0.428571 0.142857 0 55.845 4.36643e-08 
446 1 0.428536 0.142897 0.16963 55.845 -9.44216e-08 
447 1 0.464313 0.142856 0.126731 55.845 1.87554e-07 
448 1 0.464364 0.178485 0.16963 55.845 -1.29133e-07 
523 1 0.392857 0.214286 0.0416667 55.845 9.86263e-08 
524 1 0.392857 0.249979 0.0844984 55.845 -2.6473e-07 
525 1 0.428571 0.25 0.0416667 55.845 1.10808e-07 
535 1 0.392857 0.142857 0.0416667 55.845 6.77668e-08 
536 1 0.39278 0.178553 0.0842218 55.845 -3.25252e-07 
537 1 0.428571 0.178571 0.0416667 55.845 6.90059e-08 
538 1 0.428619 0.214344 0.0845357 55.845 -3.42748e-07 
539 1 0.464286 0.214286 0.0416667 55.845 6.04414e-08 
548 1 0.428562 0.142866 0.0843942 55.845 -3.17692e-07 
549 1 0.464286 0.142857 0.0416667 55.845 1.26595e-07 
550 1 0.46442 0.178675 0.0843568 55.845 -3.35754e-07 
593 1 0.392857 0.25 0 55.845 8.46904e-08 
599 1 0.392857 0.178571 0 55.845 3.8803e-08 
600 1 0.428571 0.214286 0 55.845 2.92167e-08 
3 1 -2.16021e-05 0.107 0.462424 55.845 3.98825e-08 
7 1 -3.91063e-05 0.0357103 0.462516 55.845 8.02453e-08 
8 1 0.0357292 0.0713872 0.462443 55.845 8.67188e-08 
9 1 0.071381 0.107222 0.462411 55.845 1.40239e-07 
13 1 0.0356949 -8.83996e-05 0.462542 55.845 1.35863e-07 
14 1 0.0714618 0.0356726 0.462402 55.845 1.41782e-07 
15 1 0.10711 0.0714242 0.462401 55.845 1.77143e-07 
20 1 0.107076 5.37492e-05 0.462391 55.845 1.00507e-07 
55 1 -0.000116081 0.107052 0.379599 55.845 -2.42762e-08 
63 1 4.18065e-05 0.0356197 0.379667 55.845 -2.44841e-08 
64 1 3.70923e-05 0.071335 0.420992 55.845 -2.96704e-08 
65 1 0.0357077 0.0712333 0.379803 55.845 -1.52209e-08 
66 1 0.0357025 0.107117 0.421029 55.845 -2.63251e-09 
67 1 0.071355 0.107143 0.379531 55.845 9.28523e-09 
74 1 6.40694e-05 -6.05428e-06 0.421066 55.845 4.88545e-08 
75 1 0.0356735 -4.64274e-05 0.379455 55.845 2.44809e-08 
76 1 0.0356811 0.0356797 0.421213 55.845 1.62094e-08 
77 1 0.0713215 0.0356276 0.379714 55.845 3.11621e-08 
78 1 0.0713719 0.0714086 0.421171 55.845 1.22702e-08 
79 1 0.107166 0.0714095 0.37963 55.845 5.12219e-08 
80 1 0.107106 0.107145 0.420982 55.845 3.08174e-09 
88 1 0.0713946 -7.5011e-05 0.421027 55.845 2.48273e-08 
89 1 0.107091 1.63547e-05 0.379643 55.845 2.25136e-08 
90 1 0.107196 0.0358056 0.421037 55.845 2.49514e-08 
157 1 1.44694e-05 0.107083 0.29373 55.845 -1.59502e-07 
165 1 -0.000101749 0.0356624 0.293536 55.845 -1.43989e-07 
166 1 -0.000133423 0.0713146 0.336631 55.845 -9.92483e-08 
167 1 0.0356611 0.0713217 0.293506 55.845 -1.50802e-07 
168 1 0.0356721 0.10701 0.336875 55.845 -8.64951e-08 
169 1 0.0714905 0.107095 0.293612 55.845 -1.68886e-07 
176 1 -0.00011928 -8.98153e-06 0.336741 55.845 -5.80534e-08 
177 1 0.0357192 5.98255e-05 0.293485 55.845 -1.29506e-07 
178 1 0.0357307 0.0356163 0.33666 55.845 -7.17789e-08 
179 1 0.0713591 0.0356925 0.293538 55.845 -1.27512e-07 
180 1 0.0713754 0.0714114 0.336862 55.845 -6.05291e-08 
181 1 0.107235 0.071377 0.29355 55.845 -1.33582e-07 
182 1 0.107175 0.107154 0.336684 55.845 -6.17417e-08 
190 1 0.0714042 -7.59059e-05 0.3367 55.845 -4.1678e-08 
191 1 0.107094 -3.64001e-05 0.293544 55.845 -1.27116e-07 
192 1 0.107052 0.035746 0.336811 55.845 -3.6823e-08 
268 1 -9.35709e-05 0.0713964 0.251732 55.845 -4.48625e-08 
270 1 0.0356905 0.107103 0.251826 55.845 -3.27473e-08 
278 1 5.16239e-06 4.19653e-05 0.251575 55.845 5.38073e-09 
280 1 0.035623 0.035671 0.251428 55.845 6.65261e-09 
282 1 0.071354 0.0714054 0.251751 55.845 1.76222e-08 
284 1 0.107148 0.107141 0.251827 55.845 3.93791e-08 
292 1 0.0713671 5.38843e-05 0.251638 55.845 1.67214e-08 
294 1 0.107064 0.0356366 0.251649 55.845 2.48532e-08 
16 1 0.142753 0.107243 0.462352 55.845 1.45159e-07 
21 1 0.142878 0.0357826 0.462543 55.845 1.61957e-07 
22 1 0.178515 0.07152 0.46243 55.845 1.62174e-07 
23 1 0.214338 0.107162 0.462388 55.845 1.39777e-07 
27 1 0.178592 1.20965e-05 0.462457 55.845 1.35913e-07 
28 1 0.214326 0.035651 0.462531 55.845 1.48468e-07 
29 1 0.250021 0.0715252 0.462363 55.845 1.40471e-07 
81 1 0.142904 0.107257 0.379456 55.845 2.07916e-08 
91 1 0.142848 0.0356661 0.379557 55.845 6.19929e-08 
92 1 0.142891 0.0715361 0.421079 55.845 3.48371e-08 
93 1 0.178556 0.0713232 0.379513 55.845 6.58269e-08 
94 1 0.178573 0.107161 0.421046 55.845 2.50354e-08 
95 1 0.21428 0.107166 0.37959 55.845 3.79416e-08 
102 1 0.142846 -5.76464e-06 0.421153 55.845 2.95724e-08 
103 1 0.17854 8.13799e-06 0.379725 55.845 5.1036e-08 
104 1 0.178542 0.0356773 0.42103 55.845 6.45949e-08 
105 1 0.214253 0.0357214 0.379487 55.845 7.31704e-08 
106 1 0.21419 0.0713628 0.421004 55.845 5.74177e-08 
107 1 0.249993 0.0713976 0.379631 55.845 6.8322e-08 
108 1 0.249955 0.10723 0.420936 55.845 4.48096e-08 
118 1 0.214435 9.65053e-05 0.420921 55.845 8.55243e-08 
120 1 0.249973 0.0356935 0.421057 55.845 5.49259e-08 
183 1 0.14288 0.107153 0.293679 55.845 -1.41398e-07 
193 1 0.142778 0.0357313 0.293354 55.845 -1.17902e-07 
194 1 0.142778 0.0713257 0.336967 55.845 -2.8209e-08 
195 1 0.178548 0.0714631 0.293652 55.845 -1.06165e-07 
196 1 0.178533 0.107159 0.33686 55.845 -2.54232e-08 
197 1 0.214181 0.107131 0.293529 55.845 -1.11845e-07 
204 1 0.142737 -2.94292e-05 0.336843 55.845 -4.15676e-08 
205 1 0.178407 -3.1964e-05 0.29333 55.845 -1.16162e-07 
206 1 0.17853 0.0356748 0.336683 55.845 -1.49961e-08 
207 1 0.214192 0.0358262 0.293516 55.845 -9.56134e-08 
208 1 0.214263 0.071412 0.336883 55.845 -5.17475e-09 
209 1 0.249942 0.0714452 0.293501 55.845 -7.90852e-08 
210 1 0.249992 0.107118 0.336674 55.845 -1.69982e-08 
220 1 0.21419 9.07438e-05 0.336608 55.845 -2.38497e-08 
222 1 0.249937 0.0357247 0.336712 55.845 -6.38557e-09 
296 1 0.142885 0.0713834 0.251566 55.845 4.41749e-08 
298 1 0.178537 0.10729 0.251562 55.845 5.05251e-08 
306 1 0.142727 7.81514e-05 0.251655 55.845 -1.01653e-08 
308 1 0.17854 0.0356751 0.251701 55.845 1.18766e-08 
310 1 0.214228 0.0714728 0.251737 55.845 1.50663e-08 
312 1 0.249904 0.10706 0.25158 55.845 9.65943e-09 
322 1 0.214127 -9.49169e-05 0.251552 55.845 -2.14329e-08 
324 1 0.24996 0.0357488 0.251631 55.845 -8.24576e-09 
30 1 0.285638 0.107103 0.462337 55.845 1.50234e-07 
35 1 0.250042 -2.91512e-05 0.462327 55.845 1.2532e-07 
36 1 0.285652 0.0357092 0.462391 55.845 1.17499e-07 
37 1 0.321274 0.0714834 0.46258 55.845 1.44911e-07 
38 1 0.35702 0.107117 0.462517 55.845 1.46281e-07 
42 1 0.321483 5.74467e-05 0.462611 55.845 1.14782e-07 
43 1 0.357028 0.0357407 0.462576 55.845 1.47028e-07 
109 1 0.28571 0.107145 0.379591 55.845 6.64667e-08 
119 1 0.250109 -4.7724e-05 0.379489 55.845 5.41088e-08 
121 1 0.285605 0.0357535 0.379391 55.845 6.45814e-08 
122 1 0.285692 0.0715047 0.420837 55.845 2.16255e-08 
123 1 0.321348 0.0714477 0.379399 55.845 7.88085e-08 
124 1 0.321418 0.107132 0.420888 55.845 1.37155e-08 
125 1 0.357182 0.107098 0.3796 55.845 8.72738e-08 
133 1 0.321494 2.35868e-05 0.379469 55.845 4.85774e-08 
134 1 0.321365 0.0356973 0.420992 55.845 1.78038e-08 
135 1 0.357064 0.0357404 0.37967 55.845 6.07153e-08 
136 1 0.357032 0.0713063 0.420994 55.845 2.84602e-08 
211 1 0.285737 0.107129 0.293364 55.845 -6.49509e-08 
221 1 0.249933 6.23551e-05 0.293433 55.845 -9.85931e-08 
223 1 0.285687 0.0357711 0.293425 55.845 -7.80035e-08 
224 1 0.285549 0.0714373 0.336499 55.845 -1.17778e-09 
225 1 0.321352 0.0714502 0.293444 55.845 -4.78073e-08 
226 1 0.321427 0.10712 0.33666 55.845 3.66096e-10 
227 1 0.357205 0.107091 0.293592 55.845 -4.27418e-08 
235 1 0.321423 2.74125e-05 0.293527 55.845 -9.10475e-08 
236 1 0.321421 0.0356832 0.336785 55.845 -1.9699e-08 
237 1 0.357089 0.0357307 0.293662 55.845 -9.08019e-08 
238 1 0.357116 0.0713901 0.336806 55.845 -7.1556e-09 
326 1 0.285633 0.0713993 0.251572 55.845 2.64148e-08 
328 1 0.321487 0.107134 0.251634 55.845 5.20743e-08 
338 1 0.3214 0.0356461 0.251805 55.845 7.32095e-09 
340 1 0.357094 0.0713922 0.251709 55.845 3.12668e-08 
44 1 0.392775 0.0715151 0.462631 55.845 1.80596e-07 
45 1 0.428621 0.107117 0.462377 55.845 1.71288e-07 
47 1 0.392898 7.33392e-05 0.462548 55.845 9.49014e-08 
48 1 0.428526 0.0358186 0.462702 55.845 1.2387e-07 
49 1 0.464319 0.0714363 0.462604 55.845 1.24011e-07 
50 1 0.464196 0.000106538 0.462483 55.845 6.95853e-08 
137 1 0.392831 0.071543 0.379668 55.845 7.21208e-08 
138 1 0.392768 0.107231 0.421187 55.845 2.64292e-08 
139 1 0.428557 0.107096 0.379616 55.845 8.23719e-08 
144 1 0.392806 8.11835e-05 0.379615 55.845 1.16165e-08 
145 1 0.392722 0.0357046 0.421095 55.845 3.67078e-08 
146 1 0.428509 0.0357741 0.379775 55.845 5.16006e-09 
147 1 0.428576 0.0714165 0.421136 55.845 4.36687e-08 
148 1 0.464295 0.0714721 0.379663 55.845 1.48164e-08 
149 1 0.464302 0.107178 0.420909 55.845 4.04335e-08 
150 1 0.428571 1.51855e-05 0.421112 55.845 -1.58183e-08 
151 1 0.464244 7.74322e-05 0.379466 55.845 -4.48877e-08 
152 1 0.464289 0.0358192 0.421103 55.845 -1.50271e-08 
239 1 0.39293 0.0714678 0.293643 55.845 -7.03424e-08 
240 1 0.392854 0.10713 0.336879 55.845 -1.50754e-08 
241 1 0.42845 0.107225 0.293613 55.845 -5.01884e-08 
246 1 0.392763 5.15303e-05 0.293419 55.845 -9.91813e-08 
247 1 0.39279 0.03577 0.33677 55.845 -3.77794e-08 
248 1 0.428477 0.0356708 0.293635 55.845 -9.85966e-08 
249 1 0.428578 0.0713437 0.33694 55.845 -3.89526e-08 
250 1 0.464308 0.0713999 0.293498 55.845 -7.47812e-08 
251 1 0.464172 0.107071 0.336751 55.845 -5.42616e-08 
252 1 0.428488 7.59563e-05 0.336837 55.845 -7.44442e-08 
253 1 0.464164 3.71723e-05 0.293443 55.845 -1.13756e-07 
254 1 0.464255 0.0356859 0.336686 55.845 -9.52591e-08 
342 1 0.392885 0.107264 0.251795 55.845 7.53887e-09 
349 1 0.392878 0.0357231 0.25174 55.845 9.81272e-10 
351 1 0.428487 0.0714239 0.251707 55.845 -7.54356e-09 
353 1 0.464219 0.107092 0.251671 55.845 -4.86752e-08 
354 1 0.42853 -2.92828e-06 0.251654 55.845 -3.68973e-09 
356 1 0.464202 0.0357449 0.251714 55.845 -3.33279e-08 
1 1 1.9237e-05 0.178543 0.462522 55.845 7.71782e-08 
2 1 0.0356382 0.21427 0.462618 55.845 5.49757e-08 
4 1 0.0355633 0.142803 0.462451 55.845 1.0169e-07 
5 1 0.0713127 0.178573 0.46238 55.845 1.03142e-07 
6 1 0.107243 0.214172 0.462357 55.845 1.32537e-07 
10 1 0.107052 0.142834 0.462347 55.845 1.30608e-07 
51 1 -3.46613e-05 0.178556 0.379739 55.845 3.06843e-09 
52 1 -6.19446e-05 0.214331 0.421152 55.845 1.83601e-08 
53 1 0.0356684 0.214259 0.379567 55.845 -1.44441e-08 
54 1 0.0357135 0.250002 0.421108 55.845 -7.48427e-09 
56 1 7.28234e-06 0.14275 0.421093 55.845 2.61949e-08 
57 1 0.0355931 0.142753 0.379474 55.845 4.23461e-09 
58 1 0.0356222 0.178534 0.420994 55.845 2.41082e-08 
59 1 0.0713455 0.178542 0.379561 55.845 -1.05198e-08 
60 1 0.0714403 0.214239 0.421096 55.845 5.51887e-10 
61 1 0.107091 0.21428 0.379489 55.845 6.55142e-09 
62 1 0.107165 0.250022 0.421036 55.845 8.21281e-08 
68 1 0.0713813 0.142899 0.421037 55.845 9.42336e-09 
69 1 0.107119 0.14284 0.379437 55.845 -1.43341e-08 
70 1 0.107039 0.178485 0.420937 55.845 1.10863e-08 
153 1 -7.28985e-05 0.178607 0.293566 55.845 -1.67348e-07 
154 1 2.19295e-06 0.214259 0.336788 55.845 -4.23516e-08 
155 1 0.0356194 0.214175 0.293633 55.845 -1.69903e-07 
156 1 0.0356287 0.249986 0.336671 55.845 -2.6711e-08 
158 1 -9.08741e-05 0.14283 0.336677 55.845 -6.64451e-08 
159 1 0.0357664 0.142824 0.293742 55.845 -1.64206e-07 
160 1 0.0355435 0.178501 0.336722 55.845 -5.492e-08 
161 1 0.0713507 0.178616 0.293536 55.845 -1.82314e-07 
162 1 0.0713105 0.214219 0.336736 55.845 -4.94033e-08 
163 1 0.107056 0.214307 0.293491 55.845 -1.76888e-07 
164 1 0.10719 0.250067 0.336791 55.845 -3.92571e-09 
170 1 0.0713142 0.142876 0.336827 55.845 -7.12974e-08 
171 1 0.10719 0.14281 0.293672 55.845 -1.76871e-07 
172 1 0.106994 0.178582 0.336724 55.845 -5.69817e-08 
256 1 -3.61101e-05 0.214344 0.251585 55.845 -2.11764e-08 
258 1 0.0356508 0.250086 0.251835 55.845 3.06734e-08 
260 1 3.4896e-06 0.142797 0.251757 55.845 -6.56603e-08 
262 1 0.0356911 0.178547 0.25158 55.845 -1.7805e-08 
264 1 0.0713933 0.214341 0.251644 55.845 1.78537e-08 
266 1 0.107149 0.250061 0.251722 55.845 6.11502e-08 
272 1 0.0714325 0.142947 0.251756 55.845 2.856e-10 
274 1 0.107193 0.178574 0.251673 55.845 3.88774e-08 
11 1 0.142883 0.178494 0.462401 55.845 1.17133e-07 
12 1 0.178649 0.214308 0.462377 55.845 1.56691e-07 
17 1 0.178639 0.142857 0.462431 55.845 1.03808e-07 
18 1 0.214309 0.178556 0.462599 55.845 1.17644e-07 
19 1 0.25003 0.214318 0.462577 55.845 1.00287e-07 
24 1 0.250054 0.142845 0.462408 55.845 1.54189e-07 
71 1 0.142758 0.17859 0.379603 55.845 -7.30335e-09 
72 1 0.1428 0.21426 0.420968 55.845 9.53415e-08 
73 1 0.178573 0.214282 0.379591 55.845 3.39559e-08 
82 1 0.142909 0.142766 0.420908 55.845 4.35264e-09 
83 1 0.178709 0.14288 0.379525 55.845 -5.78032e-09 
84 1 0.178534 0.178517 0.420973 55.845 6.64636e-08 
85 1 0.214317 0.178578 0.379552 55.845 -1.01383e-08 
86 1 0.214426 0.214255 0.421214 55.845 9.97208e-08 
87 1 0.249886 0.214384 0.379662 55.845 -1.05969e-08 
96 1 0.214336 0.142958 0.420958 55.845 5.71634e-08 
97 1 0.250013 0.142863 0.37938 55.845 1.15656e-08 
98 1 0.250038 0.178605 0.421012 55.845 7.58019e-08 
173 1 0.142858 0.178567 0.293559 55.845 -1.57046e-07 
174 1 0.142859 0.21428 0.336758 55.845 5.71277e-09 
175 1 0.178435 0.214304 0.29345 55.845 -1.36889e-07 
184 1 0.14289 0.142887 0.336678 55.845 -4.84445e-08 
185 1 0.178607 0.142857 0.293543 55.845 -1.31924e-07 
186 1 0.178551 0.17864 0.336726 55.845 -5.51516e-09 
187 1 0.214229 0.178588 0.29342 55.845 -1.35877e-07 
188 1 0.214281 0.214343 0.336718 55.845 4.07482e-10 
189 1 0.249955 0.214339 0.293443 55.845 -1.41858e-07 
198 1 0.214243 0.142879 0.336663 55.845 -2.53118e-08 
199 1 0.25002 0.142796 0.29348 55.845 -1.1905e-07 
200 1 0.249926 0.178542 0.336694 55.845 -2.91578e-08 
276 1 0.142825 0.214355 0.251613 55.845 6.88497e-08 
286 1 0.142905 0.142884 0.251672 55.845 6.13747e-08 
288 1 0.178532 0.178568 0.251741 55.845 7.21258e-08 
290 1 0.21424 0.214233 0.2516 55.845 3.34405e-08 
300 1 0.214336 0.142867 0.251793 55.845 3.19666e-08 
302 1 0.249994 0.178447 0.251812 55.845 9.02742e-09 
25 1 0.285638 0.178499 0.46249 55.845 1.3962e-07 
26 1 0.321322 0.214297 0.462682 55.845 1.19467e-07 
31 1 0.32128 0.142786 0.462345 55.845 1.43098e-07 
32 1 0.356969 0.178522 0.462421 55.845 1.08738e-07 
99 1 0.285683 0.178565 0.379426 55.845 1.12206e-08 
100 1 0.285745 0.214192 0.421141 55.845 3.12569e-08 
101 1 0.321321 0.214282 0.379487 55.845 2.3944e-08 
110 1 0.285603 0.142815 0.420861 55.845 4.63643e-08 
111 1 0.321457 0.142857 0.379417 55.845 5.62423e-08 
112 1 0.321444 0.178498 0.420917 55.845 1.44669e-08 
113 1 0.357127 0.17849 0.379569 55.845 3.29131e-08 
114 1 0.357116 0.214268 0.421052 55.845 9.0181e-09 
126 1 0.356969 0.142842 0.421036 55.845 -1.31835e-08 
201 1 0.285726 0.178598 0.293505 55.845 -1.09974e-07 
202 1 0.285586 0.21431 0.336653 55.845 -3.50623e-08 
203 1 0.321422 0.214295 0.293767 55.845 -9.82478e-08 
212 1 0.285687 0.142884 0.336777 55.845 -2.83831e-08 
213 1 0.321457 0.142825 0.293527 55.845 -6.28574e-08 
214 1 0.321445 0.178577 0.336766 55.845 -4.10169e-08 
215 1 0.357174 0.178557 0.293658 55.845 -8.06698e-08 
216 1 0.357154 0.21424 0.336869 55.845 -7.17043e-08 
228 1 0.357228 0.142791 0.336657 55.845 -2.78303e-08 