ITEM: TIMESTEP
600
ITEM: NUMBER OF ATOMS
5880
ITEM: BOX BOUNDS pp pp ff
-27.9478 27.9478
-27.9478 27.9478
0 34.092
ITEM: ATOMS id type xs ys zs mass q 
259 1 -4.0827e-05 0.10724 0.208781 55.845 -2.04132e-07 
267 1 -6.82203e-05 0.035695 0.208718 55.845 -3.69068e-08 
269 1 0.03575 0.0713775 0.208685 55.845 -3.98068e-08 
271 1 0.0713732 0.107193 0.208818 55.845 -2.13612e-07 
279 1 0.0357208 -9.71558e-06 0.208781 55.845 2.25309e-07 
281 1 0.0714826 0.0357193 0.208738 55.845 1.17344e-08 
283 1 0.107153 0.0714239 0.208828 55.845 -2.53172e-07 
293 1 0.1071 6.90371e-05 0.208796 55.845 -5.80993e-08 
361 1 -9.0072e-06 0.107108 0.124478 55.845 -6.38629e-07 
369 1 1.73386e-05 0.0356846 0.124448 55.845 -4.46125e-07 
370 1 -2.23044e-05 0.0714481 0.165958 55.845 -1.68129e-07 
371 1 0.0357179 0.0713748 0.124488 55.845 -2.056e-07 
372 1 0.0356512 0.107139 0.16611 55.845 -1.52274e-07 
373 1 0.0713555 0.10711 0.124407 55.845 -6.4616e-07 
380 1 1.64295e-05 -2.23605e-06 0.166013 55.845 5.05416e-07 
381 1 0.0357091 -2.84928e-05 0.124293 55.845 -7.56097e-07 
382 1 0.0358004 0.0356399 0.165987 55.845 3.31183e-07 
383 1 0.0714193 0.0357096 0.124318 55.845 -2.07178e-07 
384 1 0.07144 0.0714493 0.166084 55.845 1.05165e-07 
385 1 0.10715 0.0714846 0.124357 55.845 -2.1469e-07 
386 1 0.107093 0.107188 0.165904 55.845 6.2597e-07 
394 1 0.0713862 -2.14014e-05 0.166026 55.845 -1.05359e-07 
395 1 0.107101 -2.22378e-05 0.124357 55.845 -6.62239e-07 
396 1 0.107174 0.0357486 0.166005 55.845 1.98502e-07 
463 1 0 0.107143 0.0416667 55.845 2.76496e-07 
471 1 0 0.0357143 0.0416667 55.845 1.8249e-07 
472 1 3.01046e-05 0.0714386 0.083618 55.845 5.13818e-07 
473 1 0.0357143 0.0714286 0.0416667 55.845 -9.14612e-08 
474 1 0.0357401 0.10712 0.0835991 55.845 2.98066e-07 
475 1 0.0714286 0.107143 0.0416667 55.845 9.87185e-08 
482 1 5.73087e-05 2.61592e-05 0.0835149 55.845 2.12849e-07 
483 1 0.0357143 0 0.0416667 55.845 1.97e-08 
484 1 0.0356956 0.0357021 0.083552 55.845 4.57023e-07 
485 1 0.0714286 0.0357143 0.0416667 55.845 5.94451e-08 
486 1 0.0714354 0.0714121 0.0836147 55.845 3.57183e-07 
487 1 0.107143 0.0714286 0.0416667 55.845 -4.04018e-07 
488 1 0.107159 0.107186 0.0836636 55.845 2.5036e-07 
496 1 0.071385 -3.64095e-05 0.0836071 55.845 6.41409e-07 
497 1 0.107143 0 0.0416667 55.845 3.63035e-07 
498 1 0.107112 0.0356741 0.0835966 55.845 2.02115e-07 
567 1 0 0.0714286 0 55.845 -1.52866e-07 
568 1 0.0357143 0.107143 0 55.845 -6.59194e-08 
572 1 0 0 0 55.845 2.37813e-07 
573 1 0.0357143 0.0357143 0 55.845 -3.31651e-07 
574 1 0.0714286 0.0714286 0 55.845 -2.35593e-07 
575 1 0.107143 0.107143 0 55.845 1.3122e-07 
579 1 0.0714286 0 0 55.845 -1.88576e-07 
580 1 0.107143 0.0357143 0 55.845 8.78697e-08 
285 1 0.142874 0.107154 0.208742 55.845 -1.98133e-07 
295 1 0.142941 0.0357238 0.208735 55.845 -1.01625e-07 
297 1 0.178593 0.0713996 0.208677 55.845 -6.1533e-08 
299 1 0.2143 0.107072 0.208832 55.845 -3.30272e-07 
307 1 0.178623 -4.20468e-05 0.208831 55.845 -2.34301e-07 
309 1 0.214347 0.0356098 0.208799 55.845 -2.46049e-07 
311 1 0.250047 0.0713731 0.208678 55.845 -5.20229e-07 
387 1 0.142846 0.107169 0.1243 55.845 -6.80359e-07 
397 1 0.142847 0.0357396 0.124431 55.845 -6.50064e-07 
398 1 0.14286 0.0714745 0.165993 55.845 7.34674e-07 
399 1 0.178586 0.0714364 0.124466 55.845 -3.1546e-07 
400 1 0.178587 0.107166 0.166055 55.845 3.91691e-07 
401 1 0.214336 0.107134 0.124414 55.845 -1.08055e-06 
408 1 0.142827 -2.64389e-05 0.165983 55.845 -5.34913e-08 
409 1 0.178593 5.49135e-06 0.124421 55.845 -7.27548e-07 
410 1 0.178574 0.0357135 0.166023 55.845 4.22244e-07 
411 1 0.21431 0.0356919 0.124361 55.845 -1.2664e-07 
412 1 0.214286 0.0714328 0.166019 55.845 1.0325e-07 
413 1 0.250024 0.0714657 0.124361 55.845 -6.88569e-07 
414 1 0.249988 0.107162 0.166033 55.845 1.16393e-07 
424 1 0.214342 2.81496e-05 0.166161 55.845 3.03413e-07 
426 1 0.250077 0.0356785 0.165956 55.845 1.66385e-07 
489 1 0.142857 0.107143 0.0416667 55.845 -2.31178e-07 
499 1 0.142857 0.0357143 0.0416667 55.845 -3.79634e-08 
500 1 0.14285 0.0713831 0.0834703 55.845 2.76942e-07 
501 1 0.178571 0.0714286 0.0416667 55.845 -1.83109e-07 
502 1 0.17857 0.107136 0.0835249 55.845 6.11321e-07 
503 1 0.214286 0.107143 0.0416667 55.845 1.45705e-07 
510 1 0.142837 -5.92728e-06 0.0835206 55.845 2.16085e-07 
511 1 0.178571 0 0.0416667 55.845 -4.4137e-08 
512 1 0.178564 0.0357145 0.0835664 55.845 4.89868e-07 
513 1 0.214286 0.0357143 0.0416667 55.845 -4.94867e-09 
514 1 0.214295 0.0714382 0.0835079 55.845 9.42446e-07 
515 1 0.25 0.0714286 0.0416667 55.845 -5.67474e-09 
516 1 0.250037 0.107183 0.0835171 55.845 7.36216e-07 
526 1 0.214308 2.98597e-07 0.0835946 55.845 5.78176e-07 
528 1 0.249981 0.0356623 0.0833973 55.845 3.38945e-07 
581 1 0.142857 0.0714286 0 55.845 -1.72906e-07 
582 1 0.178571 0.107143 0 55.845 3.10817e-07 
586 1 0.142857 0 0 55.845 1.13151e-07 
587 1 0.178571 0.0357143 0 55.845 -2.04668e-07 
588 1 0.214286 0.0714286 0 55.845 7.81515e-08 
589 1 0.25 0.107143 0 55.845 -2.71271e-08 
594 1 0.214286 0 0 55.845 -1.75236e-07 
595 1 0.25 0.0357143 0 55.845 -3.37186e-07 
313 1 0.285746 0.107201 0.208788 55.845 -1.09993e-07 
323 1 0.250099 -5.73012e-05 0.208769 55.845 1.70509e-07 
325 1 0.285761 0.035738 0.208824 55.845 -5.20348e-08 
327 1 0.321493 0.0714595 0.208754 55.845 1.8257e-07 
329 1 0.357129 0.107124 0.208704 55.845 -1.48246e-07 
337 1 0.321459 5.36492e-05 0.208685 55.845 9.19291e-08 
339 1 0.357233 0.0356972 0.208776 55.845 2.54776e-07 
415 1 0.285732 0.107113 0.124426 55.845 -6.0903e-07 
425 1 0.24997 2.96482e-05 0.124296 55.845 -3.57272e-07 
427 1 0.285665 0.0357474 0.12443 55.845 -5.70462e-07 
428 1 0.285771 0.0714462 0.166178 55.845 -7.15788e-08 
429 1 0.321355 0.0714017 0.124378 55.845 -4.02408e-07 
430 1 0.32148 0.107206 0.166004 55.845 5.96943e-07 
431 1 0.357175 0.107135 0.124464 55.845 -6.47271e-07 
439 1 0.321505 -1.23707e-06 0.1244 55.845 -5.97498e-07 
440 1 0.321438 0.0357219 0.165987 55.845 3.36048e-07 
441 1 0.357172 0.0356861 0.124459 55.845 -3.47662e-07 
442 1 0.357157 0.0714044 0.165995 55.845 4.99143e-07 
517 1 0.285714 0.107143 0.0416667 55.845 -2.90709e-07 
527 1 0.25 0 0.0416667 55.845 -6.83717e-08 
529 1 0.285714 0.0357143 0.0416667 55.845 5.44103e-08 
530 1 0.28572 0.0714254 0.083569 55.845 2.65385e-07 
531 1 0.321429 0.0714286 0.0416667 55.845 -1.4947e-07 
532 1 0.321418 0.107127 0.0836362 55.845 2.93995e-07 
533 1 0.357143 0.107143 0.0416667 55.845 -3.41722e-07 
603 1 0.357143 0.0714286 0 55.845 -2.3644e-07 
541 1 0.321429 0 0.0416667 55.845 2.39423e-07 
542 1 0.32143 0.0357282 0.0835287 55.845 3.24513e-07 
543 1 0.357143 0.0357143 0.0416667 55.845 1.04414e-07 
544 1 0.35714 0.071408 0.0835888 55.845 4.59459e-07 
602 1 0.321429 0.0357143 0 55.845 1.72534e-07 
596 1 0.285714 0.0714286 0 55.845 -7.69419e-09 
597 1 0.321429 0.107143 0 55.845 -5.80449e-08 
612 1 0.464286 0.0357143 0 55.845 1.09352e-07 
611 1 0.428571 0 0 55.845 -3.81528e-07 
610 1 0.464286 0.107143 0 55.845 8.91182e-08 
609 1 0.428571 0.0714286 0 55.845 2.22833e-07 
608 1 0.392857 0.0357143 0 55.845 -3.31635e-07 
341 1 0.392894 0.0713876 0.208728 55.845 9.23527e-09 
343 1 0.428631 0.107132 0.208729 55.845 -3.74303e-07 
348 1 0.392811 -6.9143e-05 0.208697 55.845 -2.7803e-07 
350 1 0.4286 0.0356757 0.208771 55.845 -5.47155e-08 
352 1 0.464294 0.0713402 0.208823 55.845 -2.74679e-07 
355 1 0.464292 -1.28225e-05 0.208662 55.845 3.27491e-07 
443 1 0.39283 0.0713733 0.124503 55.845 -1.82839e-07 
444 1 0.392904 0.107133 0.166025 55.845 2.78268e-07 
445 1 0.428549 0.107083 0.124397 55.845 -3.58613e-07 
604 1 0.392857 0.107143 0 55.845 -9.64856e-08 
450 1 0.39285 -9.38274e-05 0.124432 55.845 -5.91414e-07 
451 1 0.392909 0.035667 0.165975 55.845 6.31244e-08 
452 1 0.428524 0.0356765 0.124376 55.845 -5.78535e-07 
453 1 0.42861 0.0713739 0.166064 55.845 3.66868e-08 
454 1 0.464237 0.0714575 0.124394 55.845 -4.76398e-07 
455 1 0.464317 0.107117 0.16596 55.845 2.95339e-07 
456 1 0.428511 -0.000100274 0.166028 55.845 3.66563e-07 
457 1 0.464245 -3.03401e-07 0.124542 55.845 -8.81073e-07 
458 1 0.464305 0.0357242 0.166075 55.845 2.70098e-07 
545 1 0.392857 0.0714286 0.0416667 55.845 -1.00487e-08 
546 1 0.392781 0.10715 0.0835896 55.845 4.5373e-07 
547 1 0.428571 0.107143 0.0416667 55.845 1.62213e-07 
552 1 0.392857 0 0.0416667 55.845 -1.03344e-07 
553 1 0.392893 0.0356081 0.0835947 55.845 3.70676e-07 
554 1 0.428571 0.0357143 0.0416667 55.845 -1.92366e-08 
555 1 0.428582 0.0713347 0.0836265 55.845 6.92693e-07 
556 1 0.464286 0.0714286 0.0416667 55.845 1.15569e-07 
557 1 0.464248 0.107062 0.0834988 55.845 3.74813e-07 
558 1 0.428604 -4.21204e-05 0.0835815 55.845 4.04319e-07 
559 1 0.464286 0 0.0416667 55.845 -3.37258e-07 
560 1 0.464297 0.0357137 0.0835792 55.845 2.55639e-07 
255 1 -1.33127e-05 0.178575 0.20883 55.845 -8.84095e-08 
257 1 0.0356989 0.214295 0.208784 55.845 5.35703e-09 
261 1 0.035693 0.142899 0.20878 55.845 1.13e-07 
263 1 0.0713839 0.178519 0.208784 55.845 -1.88204e-08 
265 1 0.107161 0.214308 0.208764 55.845 -6.66805e-07 
273 1 0.107124 0.142825 0.208766 55.845 -1.82791e-07 
357 1 4.64886e-05 0.178553 0.124433 55.845 -2.04154e-07 
358 1 3.8884e-05 0.21423 0.16608 55.845 2.84508e-08 
359 1 0.0357471 0.214253 0.124378 55.845 -6.82588e-07 
360 1 0.0357043 0.249992 0.165946 55.845 2.41651e-07 
362 1 1.35157e-05 0.142906 0.166053 55.845 8.18021e-08 
363 1 0.0357616 0.142791 0.124488 55.845 -4.63012e-07 
364 1 0.0357622 0.178554 0.166085 55.845 1.20092e-07 
365 1 0.0714439 0.17859 0.124292 55.845 -4.70476e-07 
366 1 0.0714764 0.214319 0.166159 55.845 -1.55707e-07 
367 1 0.107145 0.214232 0.124546 55.845 -4.73702e-07 
368 1 0.107129 0.250024 0.166067 55.845 -4.23504e-08 
374 1 0.0714832 0.142872 0.166007 55.845 3.06666e-07 
375 1 0.107149 0.142903 0.124323 55.845 -6.98134e-07 
376 1 0.107127 0.178565 0.166104 55.845 4.01223e-07 
459 1 0 0.178571 0.0416667 55.845 -4.02156e-07 
460 1 3.32058e-05 0.21424 0.0835576 55.845 6.2347e-07 
461 1 0.0357143 0.214286 0.0416667 55.845 -1.30292e-07 
462 1 0.0356938 0.249929 0.0835871 55.845 3.64703e-07 
464 1 3.0203e-05 0.142803 0.0836807 55.845 2.9834e-07 
465 1 0.0357143 0.142857 0.0416667 55.845 -5.1107e-08 
466 1 0.0357287 0.178524 0.0835414 55.845 4.00379e-07 
467 1 0.0714286 0.178571 0.0416667 55.845 4.67777e-08 
468 1 0.0714053 0.214273 0.0835945 55.845 6.62345e-07 
469 1 0.107143 0.214286 0.0416667 55.845 1.11722e-07 
470 1 0.107193 0.249932 0.0836236 55.845 4.75955e-07 
476 1 0.0714805 0.142839 0.0835204 55.845 2.22287e-07 
477 1 0.107143 0.142857 0.0416667 55.845 -6.43798e-08 
478 1 0.10715 0.178567 0.083599 55.845 6.55933e-07 
561 1 0 0.214286 0 55.845 -5.67701e-07 
562 1 0.0357143 0.25 0 55.845 1.31411e-08 
563 1 0 0.142857 0 55.845 -2.97082e-07 
564 1 0.0357143 0.178571 0 55.845 -3.67226e-07 
565 1 0.0714286 0.214286 0 55.845 1.35275e-07 
566 1 0.107143 0.25 0 55.845 -1.10824e-07 
569 1 0.0714286 0.142857 0 55.845 1.78646e-07 
570 1 0.107143 0.178571 0 55.845 -1.2299e-07 
275 1 0.142859 0.178486 0.208711 55.845 -3.11676e-07 
277 1 0.178594 0.21428 0.208769 55.845 -5.36623e-08 
287 1 0.178583 0.142818 0.208764 55.845 -3.9103e-07 
289 1 0.214295 0.178546 0.208719 55.845 -1.29586e-07 
291 1 0.250032 0.214252 0.208734 55.845 7.33309e-08 
301 1 0.25007 0.142875 0.208669 55.845 5.30578e-08 
377 1 0.142849 0.178606 0.124314 55.845 -5.00932e-07 
378 1 0.142838 0.214279 0.166056 55.845 2.32726e-07 
379 1 0.178574 0.214262 0.124419 55.845 -4.36203e-07 
388 1 0.142808 0.142831 0.16597 55.845 6.82982e-07 
389 1 0.178567 0.142842 0.124397 55.845 -1.23592e-06 
390 1 0.178542 0.178555 0.166074 55.845 2.44752e-07 
391 1 0.214324 0.178503 0.124393 55.845 -5.07781e-07 
392 1 0.214256 0.214223 0.166016 55.845 5.33325e-07 
393 1 0.250008 0.214317 0.124409 55.845 -4.01441e-07 
402 1 0.214346 0.142853 0.166131 55.845 2.77003e-07 
403 1 0.250037 0.142833 0.124556 55.845 -4.84297e-07 
404 1 0.250071 0.178599 0.166068 55.845 6.38754e-07 
479 1 0.142857 0.178571 0.0416667 55.845 -3.31902e-08 
480 1 0.14291 0.214286 0.083586 55.845 8.52826e-07 
481 1 0.178571 0.214286 0.0416667 55.845 -1.40643e-07 
490 1 0.142899 0.142902 0.0835082 55.845 4.09912e-07 
491 1 0.178571 0.142857 0.0416667 55.845 -3.48966e-07 
492 1 0.178583 0.178563 0.0835393 55.845 5.71373e-07 
493 1 0.214286 0.178571 0.0416667 55.845 -1.85971e-07 
494 1 0.214311 0.214248 0.0835083 55.845 2.93641e-07 
495 1 0.25 0.214286 0.0416667 55.845 1.94455e-07 
504 1 0.214359 0.142867 0.0836775 55.845 2.4146e-07 
505 1 0.25 0.142857 0.0416667 55.845 -1.0538e-07 
506 1 0.249954 0.178534 0.0835313 55.845 1.04013e-07 
571 1 0.142857 0.214286 0 55.845 -3.36991e-07 
576 1 0.142857 0.142857 0 55.845 2.05108e-08 
577 1 0.178571 0.178571 0 55.845 -3.69769e-07 
578 1 0.214286 0.214286 0 55.845 -2.36264e-07 
583 1 0.214286 0.142857 0 55.845 -1.3779e-07 
584 1 0.25 0.178571 0 55.845 -8.58935e-08 
303 1 0.285771 0.178548 0.208711 55.845 2.27654e-08 
305 1 0.321398 0.214233 0.20869 55.845 -3.51291e-07 
315 1 0.321448 0.142854 0.208773 55.845 -1.2893e-07 
317 1 0.357145 0.178522 0.208822 55.845 -1.35673e-07 
405 1 0.285697 0.178546 0.12427 55.845 -4.80431e-07 
406 1 0.285721 0.214248 0.166127 55.845 -5.70661e-08 
407 1 0.321428 0.214231 0.124377 55.845 -6.27971e-07 
416 1 0.285762 0.142825 0.166082 55.845 3.7723e-07 
417 1 0.321468 0.14282 0.1244 55.845 -6.35547e-07 
418 1 0.321466 0.178541 0.165927 55.845 2.68674e-07 
419 1 0.35715 0.178524 0.124375 55.845 -5.95293e-07 
420 1 0.357165 0.21422 0.165985 55.845 1.52462e-07 
432 1 0.357157 0.142806 0.166073 55.845 2.80298e-07 
507 1 0.285714 0.178571 0.0416667 55.845 7.3412e-08 
508 1 0.28573 0.214295 0.0836318 55.845 4.99116e-07 
509 1 0.321429 0.214286 0.0416667 55.845 7.2584e-08 
518 1 0.285738 0.142819 0.0835375 55.845 5.12036e-07 
519 1 0.321429 0.142857 0.0416667 55.845 -2.58937e-07 
520 1 0.321513 0.178541 0.0835768 55.845 3.40398e-07 
521 1 0.357143 0.178571 0.0416667 55.845 6.32534e-08 
522 1 0.357078 0.214268 0.0835762 55.845 6.93647e-07 
534 1 0.357164 0.142885 0.083524 55.845 3.32834e-07 
585 1 0.285714 0.214286 0 55.845 3.36282e-07 
590 1 0.285714 0.142857 0 55.845 -3.60874e-07 
591 1 0.321429 0.178571 0 55.845 1.5796e-07 
592 1 0.357143 0.214286 0 55.845 -2.67678e-07 
598 1 0.357143 0.142857 0 55.845 8.91897e-08 
319 1 0.392855 0.214254 0.208817 55.845 -2.91185e-07 
321 1 0.428581 0.250001 0.208745 55.845 5.04555e-08 
331 1 0.392884 0.142837 0.208709 55.845 -3.86848e-07 
333 1 0.428595 0.178549 0.2088 55.845 -1.54646e-07 
335 1 0.464277 0.214288 0.208775 55.845 3.1133e-08 
345 1 0.464243 0.142832 0.208769 55.845 1.63045e-08 
606 1 0.464286 0.178571 0 55.845 -1.82435e-07 
421 1 0.3929 0.214254 0.12437 55.845 -6.22423e-07 
422 1 0.392835 0.249962 0.166005 55.845 -8.0044e-08 
423 1 0.428555 0.249987 0.124317 55.845 -6.37724e-07 
433 1 0.392868 0.142836 0.124339 55.845 -5.55906e-07 
434 1 0.392813 0.178564 0.166133 55.845 9.00625e-08 
435 1 0.428489 0.178535 0.124424 55.845 -6.16654e-07 
436 1 0.428576 0.21431 0.166026 55.845 6.08797e-07 
437 1 0.464341 0.21432 0.124473 55.845 -4.18153e-07 
605 1 0.428571 0.142857 0 55.845 -1.34214e-07 
446 1 0.428536 0.142807 0.166056 55.845 2.50732e-07 
447 1 0.464247 0.142816 0.124319 55.845 -7.83356e-07 
448 1 0.464322 0.178584 0.166038 55.845 3.63701e-07 
523 1 0.392857 0.214286 0.0416667 55.845 2.12071e-07 
524 1 0.392814 0.249977 0.0835747 55.845 6.65306e-07 
525 1 0.428571 0.25 0.0416667 55.845 2.73107e-08 
535 1 0.392857 0.142857 0.0416667 55.845 -1.55648e-07 
536 1 0.392848 0.178572 0.0835378 55.845 4.36027e-07 
537 1 0.428571 0.178571 0.0416667 55.845 -2.78502e-07 
538 1 0.428574 0.214221 0.0836099 55.845 9.01596e-07 
539 1 0.464286 0.214286 0.0416667 55.845 -3.39332e-07 
548 1 0.428532 0.142858 0.0835138 55.845 3.71573e-07 
549 1 0.464286 0.142857 0.0416667 55.845 -2.79319e-07 
550 1 0.464262 0.178599 0.0835352 55.845 4.80573e-07 
593 1 0.392857 0.25 0 55.845 4.90688e-07 
599 1 0.392857 0.178571 0 55.845 -1.55633e-07 
600 1 0.428571 0.214286 0 55.845 -1.28169e-07 
3 1 -5.24542e-06 0.10715 0.460457 55.845 -6.81432e-07 
7 1 -1.48378e-05 0.0357084 0.460471 55.845 -5.36325e-07 
8 1 0.0357338 0.0714123 0.460566 55.845 -6.27926e-07 
9 1 0.0714895 0.107114 0.460506 55.845 -5.02824e-07 
13 1 0.0358074 1.03471e-05 0.460375 55.845 -9.0172e-07 
14 1 0.0714195 0.0357659 0.460482 55.845 -5.39119e-07 
15 1 0.10713 0.0714825 0.460525 55.845 -4.53554e-07 
20 1 0.107164 5.21494e-06 0.460437 55.845 -3.36355e-07 
55 1 -3.08307e-05 0.107116 0.377033 55.845 3.28401e-07 
63 1 -9.4841e-05 0.0357782 0.376952 55.845 3.73619e-07 
64 1 2.63984e-05 0.0714403 0.418824 55.845 3.0525e-07 
65 1 0.0357207 0.071461 0.376983 55.845 -4.53099e-08 
66 1 0.0356871 0.107108 0.418991 55.845 2.45906e-10 
67 1 0.0713784 0.107145 0.376926 55.845 4.93625e-07 
74 1 6.58824e-06 3.96174e-05 0.418944 55.845 2.97435e-07 
75 1 0.0357183 8.52938e-05 0.376944 55.845 5.43698e-07 
76 1 0.0356503 0.0357256 0.41884 55.845 -3.25456e-07 
77 1 0.0714043 0.0357361 0.377009 55.845 1.34996e-07 
78 1 0.0714262 0.0714454 0.418839 55.845 -5.21415e-07 
79 1 0.107138 0.0714103 0.376918 55.845 5.25946e-07 
80 1 0.107128 0.107137 0.418775 55.845 -1.53833e-07 
88 1 0.0714125 9.27904e-05 0.418842 55.845 3.57546e-07 
89 1 0.107114 -7.47091e-06 0.376994 55.845 2.33043e-07 
90 1 0.107069 0.0357445 0.41887 55.845 -1.28896e-07 
157 1 -5.58091e-05 0.107097 0.293063 55.845 4.60161e-07 
165 1 -2.87783e-05 0.0357758 0.292974 55.845 3.11354e-07 
166 1 -9.9383e-06 0.071505 0.334881 55.845 -1.69659e-07 
167 1 0.0356707 0.0714423 0.29288 55.845 8.09241e-07 
168 1 0.0357361 0.107166 0.334906 55.845 -2.86611e-07 
169 1 0.0714236 0.107165 0.292986 55.845 8.69779e-07 
176 1 -3.43874e-05 5.64243e-05 0.334907 55.845 -1.59579e-07 
177 1 0.0357413 -7.42794e-06 0.29295 55.845 5.0645e-07 
178 1 0.0356517 0.0357133 0.334829 55.845 -3.70513e-07 
179 1 0.0714297 0.0357276 0.293001 55.845 7.33403e-07 
180 1 0.0713621 0.0713995 0.334758 55.845 -2.10003e-08 
181 1 0.107125 0.0713546 0.292998 55.845 5.70381e-07 
182 1 0.107159 0.107038 0.3349 55.845 -2.41399e-07 
190 1 0.0714845 2.88433e-05 0.334914 55.845 -3.97617e-07 
191 1 0.107161 9.46926e-06 0.292935 55.845 5.96795e-07 
192 1 0.107192 0.0356545 0.33484 55.845 -7.12732e-08 
268 1 -5.76429e-05 0.0714284 0.251158 55.845 -5.70187e-07 
270 1 0.0356412 0.107119 0.251181 55.845 -5.48781e-07 
278 1 4.0509e-05 -5.32656e-05 0.251185 55.845 -2.34329e-07 
280 1 0.0357123 0.0356875 0.251176 55.845 -3.50254e-07 
282 1 0.0714252 0.0714081 0.251116 55.845 -4.18858e-07 
284 1 0.107129 0.107076 0.25131 55.845 -7.68427e-07 
292 1 0.0714728 5.48886e-05 0.251183 55.845 -3.07509e-07 
294 1 0.107204 0.0357253 0.25115 55.845 -3.97746e-07 
16 1 0.142852 0.107092 0.460554 55.845 -4.22218e-07 
21 1 0.142854 0.0357324 0.460546 55.845 -7.2225e-07 
22 1 0.178528 0.0714616 0.460449 55.845 -8.48888e-07 
23 1 0.2143 0.107067 0.460498 55.845 -1.03357e-07 
27 1 0.178592 5.51741e-06 0.460571 55.845 -3.88815e-07 
28 1 0.214278 0.0357273 0.460581 55.845 -6.56594e-07 
29 1 0.250039 0.0714541 0.460414 55.845 -3.82691e-07 
81 1 0.142882 0.107144 0.376977 55.845 7.1876e-07 
91 1 0.142831 0.0357503 0.377017 55.845 6.03119e-07 
92 1 0.142774 0.0714096 0.418965 55.845 -4.94133e-07 
93 1 0.178566 0.0714366 0.376994 55.845 4.29954e-07 
94 1 0.178592 0.107091 0.418831 55.845 -2.38819e-07 
95 1 0.214319 0.107124 0.376987 55.845 1.53635e-07 
102 1 0.142886 1.37182e-05 0.418768 55.845 3.91878e-09 
103 1 0.178578 0.000116142 0.377065 55.845 1.53741e-07 
104 1 0.178575 0.0357635 0.418987 55.845 7.42551e-08 
105 1 0.214352 0.0357602 0.377072 55.845 1.38444e-07 
106 1 0.214246 0.0714418 0.418876 55.845 1.5794e-07 
107 1 0.250019 0.0714459 0.377016 55.845 1.55594e-07 
108 1 0.25001 0.107145 0.418959 55.845 1.02135e-07 
118 1 0.214347 2.16053e-05 0.418985 55.845 1.85288e-07 
120 1 0.250072 0.0357683 0.418927 55.845 2.34644e-07 
183 1 0.142818 0.107156 0.292934 55.845 7.0269e-07 
193 1 0.142951 0.0357066 0.292979 55.845 4.76549e-07 
194 1 0.142814 0.071423 0.334888 55.845 -1.39706e-07 
195 1 0.178576 0.0714528 0.29303 55.845 7.35063e-07 
196 1 0.17859 0.107105 0.334825 55.845 -1.91435e-07 
197 1 0.214327 0.107122 0.292988 55.845 8.90041e-07 
204 1 0.142909 2.53116e-05 0.334872 55.845 -6.55531e-07 
205 1 0.178615 7.78233e-05 0.292988 55.845 5.98163e-07 
206 1 0.178627 0.0357418 0.334874 55.845 -5.19674e-08 
207 1 0.214347 0.0357879 0.292999 55.845 3.69563e-07 
208 1 0.214328 0.0714331 0.334903 55.845 -1.66096e-07 
209 1 0.249999 0.071421 0.292993 55.845 6.87411e-07 
210 1 0.250106 0.107124 0.334852 55.845 -2.88423e-07 
220 1 0.21434 4.16592e-05 0.334917 55.845 -6.68315e-08 
222 1 0.250029 0.0357644 0.334924 55.845 -2.24769e-08 
296 1 0.142889 0.0714546 0.251219 55.845 -6.10152e-07 
298 1 0.178629 0.107106 0.25125 55.845 -1.30095e-07 
306 1 0.142888 5.46508e-05 0.251242 55.845 -2.62751e-07 
308 1 0.17864 0.0357282 0.251168 55.845 -2.7361e-07 
310 1 0.214303 0.071382 0.251092 55.845 -2.95927e-07 
312 1 0.250004 0.107121 0.251204 55.845 -2.35252e-07 
322 1 0.214408 1.01946e-06 0.251214 55.845 -2.33388e-07 
324 1 0.250017 0.0356404 0.251148 55.845 -3.78153e-07 
30 1 0.285766 0.10716 0.460465 55.845 -7.41795e-07 
35 1 0.250065 4.65296e-05 0.4605 55.845 -6.53849e-07 
36 1 0.285717 0.0357605 0.460506 55.845 -8.17251e-07 
37 1 0.32147 0.0714614 0.46043 55.845 -9.55893e-07 
38 1 0.357222 0.107103 0.460484 55.845 -2.26337e-07 
42 1 0.321375 -3.86308e-05 0.460447 55.845 -2.61225e-07 
43 1 0.357162 0.0357236 0.460374 55.845 -5.80221e-07 
109 1 0.285732 0.107168 0.376937 55.845 1.15774e-07 
119 1 0.250005 2.92311e-05 0.376997 55.845 -1.51587e-07 
121 1 0.285771 0.0357151 0.376986 55.845 6.41497e-07 
122 1 0.285759 0.0714693 0.418793 55.845 -1.61401e-08 
123 1 0.321451 0.071411 0.376979 55.845 4.6761e-07 
124 1 0.321495 0.107145 0.418869 55.845 -2.87832e-07 
125 1 0.35724 0.10713 0.37704 55.845 3.41328e-07 
133 1 0.321439 1.04883e-05 0.376909 55.845 3.0516e-07 
134 1 0.321457 0.0357142 0.418847 55.845 1.67641e-07 
135 1 0.357245 0.0356151 0.377011 55.845 3.94443e-07 
136 1 0.35716 0.0713821 0.418754 55.845 -9.86909e-08 
211 1 0.285745 0.10717 0.292918 55.845 1.0666e-06 
221 1 0.250012 6.00399e-07 0.292996 55.845 4.51218e-07 
223 1 0.285798 0.035699 0.2929 55.845 5.07934e-07 
224 1 0.285755 0.0714047 0.334861 55.845 1.61813e-08 
225 1 0.321476 0.07143 0.293028 55.845 7.64243e-07 
226 1 0.321463 0.107164 0.334923 55.845 -3.6709e-07 
227 1 0.357186 0.107208 0.292997 55.845 4.71342e-07 
235 1 0.321445 -2.98659e-05 0.292904 55.845 5.08452e-07 
236 1 0.321504 0.0357184 0.334768 55.845 -2.41923e-07 
237 1 0.357223 0.0357585 0.292934 55.845 6.15448e-07 
238 1 0.357178 0.071424 0.334786 55.845 -3.13212e-07 
326 1 0.285703 0.071407 0.251216 55.845 -4.99114e-07 
328 1 0.321427 0.107192 0.25126 55.845 -5.64014e-07 
338 1 0.321535 0.0357131 0.251235 55.845 -3.2418e-07 
340 1 0.357153 0.0714181 0.251195 55.845 -5.66088e-07 
44 1 0.392893 0.0714411 0.460453 55.845 -8.89777e-07 
45 1 0.428562 0.107071 0.460344 55.845 -4.09892e-07 
47 1 0.392899 4.26644e-05 0.460367 55.845 -4.06257e-07 
48 1 0.428524 0.0357551 0.460515 55.845 -7.02848e-07 
49 1 0.464313 0.0714372 0.460447 55.845 -7.69451e-07 
50 1 0.464241 -9.3177e-05 0.460431 55.845 -4.40713e-07 
137 1 0.392856 0.0714468 0.376992 55.845 3.78699e-07 
138 1 0.392927 0.107123 0.418924 55.845 -2.12998e-07 
139 1 0.428618 0.107142 0.376958 55.845 2.32069e-07 
144 1 0.392877 -2.86411e-05 0.376926 55.845 4.61642e-07 
145 1 0.392894 0.0356919 0.418808 55.845 8.34445e-08 
146 1 0.428618 0.0357575 0.376857 55.845 3.75977e-07 
147 1 0.428559 0.0713763 0.418753 55.845 3.55277e-07 
148 1 0.464325 0.0714234 0.377029 55.845 2.5279e-07 
149 1 0.464339 0.1071 0.418798 55.845 6.97215e-08 
150 1 0.428646 4.00041e-06 0.418744 55.845 2.3689e-07 
151 1 0.464284 -9.77486e-05 0.37704 55.845 -2.22408e-07 
152 1 0.464324 0.0357324 0.418889 55.845 3.26752e-07 
239 1 0.392884 0.0713753 0.292838 55.845 1.00483e-06 
240 1 0.39284 0.107069 0.334744 55.845 -2.44219e-07 
241 1 0.428585 0.107118 0.292941 55.845 8.01504e-07 
246 1 0.392863 -5.535e-05 0.292861 55.845 6.20273e-07 
247 1 0.392926 0.0357106 0.334805 55.845 -8.08541e-08 
248 1 0.428598 0.0356961 0.293025 55.845 7.82007e-07 
249 1 0.428651 0.0714058 0.334747 55.845 -4.62486e-08 
250 1 0.464327 0.0713839 0.292975 55.845 4.68278e-07 
251 1 0.464274 0.107121 0.334955 55.845 -1.08553e-07 
252 1 0.428566 -9.27733e-05 0.334825 55.845 -3.73022e-07 
253 1 0.464323 -4.46155e-05 0.293021 55.845 6.70421e-07 
254 1 0.464331 0.0356286 0.335042 55.845 -2.10859e-07 
342 1 0.392842 0.107167 0.251129 55.845 -7.78383e-07 
349 1 0.392909 0.035671 0.251156 55.845 -4.57567e-07 
351 1 0.428588 0.0714319 0.251258 55.845 -8.22307e-07 
353 1 0.46432 0.10711 0.251098 55.845 -5.50996e-07 
354 1 0.428574 -6.59066e-05 0.251253 55.845 -1.35306e-07 
356 1 0.464279 0.035609 0.251289 55.845 -2.8402e-07 
1 1 3.85316e-05 0.178533 0.460475 55.845 -6.82695e-07 
2 1 0.0356742 0.214146 0.460371 55.845 -5.47627e-07 
4 1 0.0356985 0.14281 0.460539 55.845 -6.62005e-07 
5 1 0.0715534 0.178502 0.460504 55.845 -9.71191e-08 
6 1 0.107236 0.214224 0.460575 55.845 -4.27155e-08 
10 1 0.107143 0.142778 0.460456 55.845 -1.43568e-07 
51 1 -2.35257e-05 0.178536 0.377102 55.845 2.34632e-07 
52 1 -7.65275e-06 0.214228 0.418864 55.845 -1.3136e-07 
53 1 0.0357449 0.214266 0.377039 55.845 1.68008e-07 
54 1 0.0357506 0.249926 0.418891 55.845 -6.7197e-08 
56 1 -2.08048e-05 0.142806 0.418825 55.845 1.60766e-07 
57 1 0.0356611 0.142849 0.37698 55.845 2.21589e-07 
58 1 0.0357268 0.178479 0.418816 55.845 -1.77152e-07 
59 1 0.0715258 0.178584 0.377061 55.845 2.22313e-07 
60 1 0.0714922 0.214265 0.418942 55.845 8.35227e-08 
61 1 0.107136 0.214214 0.376926 55.845 8.15968e-07 
62 1 0.107163 0.249976 0.418874 55.845 3.54779e-07 
68 1 0.0714015 0.142823 0.418851 55.845 -8.81059e-08 
69 1 0.10717 0.142817 0.377012 55.845 4.32999e-07 
70 1 0.107207 0.17857 0.418877 55.845 -5.29985e-08 
153 1 2.71274e-05 0.178501 0.293195 55.845 6.06477e-07 
154 1 2.08751e-06 0.214277 0.33491 55.845 1.64489e-07 
155 1 0.0357211 0.214285 0.293021 55.845 8.75374e-07 
156 1 0.0356811 0.249942 0.335052 55.845 -2.17511e-07 
158 1 -0.00012164 0.142812 0.334881 55.845 -3.49346e-07 
159 1 0.0357009 0.142808 0.293021 55.845 6.12523e-07 
160 1 0.0356869 0.178583 0.334861 55.845 -3.73149e-07 
161 1 0.0714773 0.178594 0.292912 55.845 5.41361e-07 
162 1 0.0713553 0.214263 0.334979 55.845 -3.29875e-07 
163 1 0.10714 0.214235 0.292933 55.845 5.88701e-07 
164 1 0.107135 0.250011 0.334893 55.845 9.68942e-08 
170 1 0.0713937 0.142883 0.334912 55.845 -4.78979e-07 
171 1 0.107198 0.142807 0.29299 55.845 4.50157e-07 
172 1 0.107152 0.178533 0.334897 55.845 -4.94124e-07 
256 1 -2.80116e-05 0.214253 0.251297 55.845 -6.31187e-07 
258 1 0.0357024 0.250011 0.251237 55.845 -2.56314e-07 
260 1 3.80929e-05 0.142908 0.251214 55.845 -5.81505e-07 
262 1 0.0357095 0.178613 0.251247 55.845 -3.65555e-07 
264 1 0.0714063 0.214331 0.25121 55.845 -3.94659e-07 
266 1 0.107065 0.249936 0.251276 55.845 -6.95346e-07 
272 1 0.0713774 0.142799 0.251286 55.845 -3.37094e-07 
274 1 0.107168 0.178529 0.251211 55.845 -3.07058e-07 
11 1 0.14291 0.178513 0.460495 55.845 -5.52795e-07 
12 1 0.17863 0.214217 0.46049 55.845 -5.49856e-07 
17 1 0.178612 0.14283 0.460496 55.845 -4.41918e-07 
18 1 0.214318 0.178499 0.460292 55.845 -9.02064e-07 
19 1 0.250013 0.214283 0.460437 55.845 -7.28285e-07 
24 1 0.249999 0.142827 0.460431 55.845 -3.7864e-07 
71 1 0.142879 0.178465 0.377029 55.845 4.94467e-07 
72 1 0.142915 0.21425 0.418936 55.845 -1.28294e-07 
73 1 0.178554 0.214219 0.377054 55.845 2.531e-07 
82 1 0.142915 0.142753 0.418834 55.845 -3.67473e-07 
83 1 0.178582 0.142856 0.376908 55.845 7.69123e-07 
84 1 0.178578 0.178592 0.418899 55.845 -2.30282e-07 
85 1 0.214262 0.178524 0.376921 55.845 6.70958e-07 
86 1 0.214358 0.214319 0.418846 55.845 3.17716e-08 
87 1 0.249981 0.214214 0.377038 55.845 5.65134e-07 
96 1 0.214287 0.142761 0.418874 55.845 3.19203e-07 
97 1 0.24998 0.142937 0.376962 55.845 3.89091e-07 
98 1 0.249995 0.17849 0.418896 55.845 -2.40789e-07 
173 1 0.142824 0.178525 0.293038 55.845 8.40289e-07 
174 1 0.142819 0.214274 0.33493 55.845 1.86781e-07 
175 1 0.178528 0.214206 0.292965 55.845 6.0558e-07 
184 1 0.142894 0.142824 0.33483 55.845 -3.92183e-07 
185 1 0.178632 0.142853 0.292947 55.845 7.40378e-07 
186 1 0.178658 0.178528 0.334872 55.845 7.50086e-08 
187 1 0.214275 0.178525 0.292889 55.845 3.61375e-07 
188 1 0.214253 0.21422 0.334823 55.845 4.85757e-09 
189 1 0.250002 0.214227 0.293005 55.845 3.216e-07 
198 1 0.214273 0.14282 0.334824 55.845 -2.00998e-07 
199 1 0.249973 0.14275 0.292933 55.845 6.91412e-07 
200 1 0.250016 0.178524 0.334741 55.845 -3.50793e-07 
276 1 0.142892 0.214179 0.251134 55.845 -1.52288e-07 
286 1 0.142899 0.142819 0.251185 55.845 -2.29807e-07 
288 1 0.178528 0.17848 0.251246 55.845 -2.00886e-07 
290 1 0.214284 0.214246 0.251164 55.845 -3.79689e-07 
300 1 0.214312 0.142883 0.25121 55.845 -1.35494e-07 
302 1 0.249978 0.178489 0.251281 55.845 -3.90158e-07 
25 1 0.285749 0.178518 0.46034 55.845 -6.33362e-07 
26 1 0.321444 0.214178 0.460508 55.845 -2.72496e-07 
31 1 0.321336 0.142784 0.460526 55.845 -3.15088e-07 
32 1 0.35718 0.178598 0.460495 55.845 -5.02399e-07 
99 1 0.285675 0.178483 0.377096 55.845 3.44819e-07 
100 1 0.28575 0.214229 0.418837 55.845 2.14253e-08 
101 1 0.321381 0.214249 0.37701 55.845 2.65415e-07 
110 1 0.285761 0.142871 0.418984 55.845 -1.83662e-07 
111 1 0.321456 0.142769 0.376927 55.845 2.69101e-07 
112 1 0.321463 0.178501 0.418932 55.845 -1.50569e-07 
113 1 0.357113 0.178593 0.376923 55.845 5.35316e-07 
114 1 0.357161 0.214248 0.418782 55.845 -1.92059e-07 
126 1 0.357175 0.142784 0.41894 55.845 -3.53455e-07 
201 1 0.285708 0.178588 0.293103 55.845 2.97875e-07 
202 1 0.285744 0.214217 0.334764 55.845 -3.41106e-07 
203 1 0.321474 0.214218 0.29298 55.845 4.94825e-07 
212 1 0.285717 0.142871 0.334842 55.845 -4.40484e-07 
213 1 0.321451 0.142845 0.292986 55.845 4.49691e-07 
214 1 0.321434 0.178573 0.334898 55.845 -2.79291e-07 
215 1 0.357163 0.178592 0.292877 55.845 6.68079e-07 