ITEM: TIMESTEP
7900
ITEM: NUMBER OF ATOMS
5880
ITEM: BOX BOUNDS pp pp ff
-27.9977 27.9977
-27.9977 27.9977
0 34.092
ITEM: ATOMS id type xs ys zs mass q 
259 1 -4.79366e-05 0.107131 0.208133 55.845 3.24772e-07 
267 1 -6.68569e-05 0.035644 0.207972 55.845 2.659e-07 
269 1 0.0356818 0.0715773 0.207916 55.845 2.48027e-07 
271 1 0.0714279 0.107119 0.208234 55.845 1.73396e-07 
279 1 0.0356564 1.08471e-05 0.208036 55.845 1.68094e-07 
281 1 0.0715169 0.0358498 0.208241 55.845 2.45551e-07 
283 1 0.107211 0.0713275 0.208163 55.845 1.6681e-07 
293 1 0.107298 -4.8474e-05 0.208146 55.845 2.08702e-07 
361 1 3.06346e-06 0.107235 0.124288 55.845 4.03462e-07 
369 1 -2.18342e-05 0.0357365 0.124015 55.845 1.76386e-07 
370 1 0.000129663 0.0714958 0.166628 55.845 -4.73629e-07 
371 1 0.0358688 0.0715006 0.124068 55.845 3.27625e-07 
372 1 0.0358161 0.107131 0.166685 55.845 -4.90937e-07 
373 1 0.0715029 0.107159 0.124356 55.845 2.71085e-07 
380 1 -3.87232e-05 8.50104e-05 0.166709 55.845 -2.92618e-07 
381 1 0.0357355 1.34736e-05 0.124497 55.845 1.70588e-07 
382 1 0.0357852 0.0357017 0.166539 55.845 -3.67704e-07 
383 1 0.0715146 0.0357723 0.124347 55.845 2.23123e-07 
384 1 0.0714967 0.0714776 0.166659 55.845 -3.52947e-07 
385 1 0.107235 0.0714107 0.12432 55.845 2.45648e-07 
386 1 0.107134 0.107216 0.166818 55.845 -3.11673e-07 
394 1 0.0714289 0.000112584 0.166984 55.845 -3.11818e-07 
395 1 0.107141 -1.37248e-05 0.124304 55.845 3.67989e-07 
396 1 0.107265 0.0356932 0.166723 55.845 -3.97044e-07 
463 1 0 0.107143 0.0416667 55.845 2.62e-07 
471 1 0 0.0357143 0.0416667 55.845 1.99404e-07 
472 1 4.01559e-05 0.0714731 0.0826293 55.845 -2.88912e-07 
473 1 0.0357143 0.0714286 0.0416667 55.845 1.46421e-07 
474 1 0.0356878 0.107191 0.0827176 55.845 -2.3276e-07 
475 1 0.0714286 0.107143 0.0416667 55.845 2.66087e-07 
482 1 4.93217e-05 1.74312e-05 0.0827236 55.845 -4.71959e-07 
483 1 0.0357143 0 0.0416667 55.845 4.24484e-07 
484 1 0.0357224 0.0356964 0.0827179 55.845 -3.75026e-07 
485 1 0.0714286 0.0357143 0.0416667 55.845 2.92172e-07 
486 1 0.071472 0.0714081 0.0827477 55.845 -2.43028e-07 
487 1 0.107143 0.0714286 0.0416667 55.845 2.88922e-07 
488 1 0.107199 0.107222 0.0829128 55.845 -2.49809e-07 
496 1 0.071356 9.32781e-06 0.0828598 55.845 -3.50299e-07 
497 1 0.107143 0 0.0416667 55.845 2.38094e-07 
498 1 0.107104 0.0356532 0.0825363 55.845 -2.28863e-07 
567 1 0 0.0714286 0 55.845 -1.59718e-07 
568 1 0.0357143 0.107143 0 55.845 -1.11831e-07 
572 1 0 0 0 55.845 -8.10809e-08 
573 1 0.0357143 0.0357143 0 55.845 -5.82238e-08 
574 1 0.0714286 0.0714286 0 55.845 -6.95432e-08 
575 1 0.107143 0.107143 0 55.845 -4.70936e-08 
579 1 0.0714286 0 0 55.845 -1.61137e-07 
580 1 0.107143 0.0357143 0 55.845 -7.80252e-08 
285 1 0.142871 0.107209 0.20784 55.845 1.69447e-07 
295 1 0.142946 0.0358355 0.208011 55.845 1.27943e-07 
297 1 0.178702 0.0714021 0.207995 55.845 1.256e-07 
299 1 0.214153 0.107058 0.208031 55.845 2.68944e-07 
307 1 0.178586 -3.48266e-06 0.208164 55.845 -2.4225e-08 
309 1 0.214217 0.0357788 0.208036 55.845 1.27368e-07 
311 1 0.249997 0.0714641 0.208259 55.845 1.36936e-07 
387 1 0.142815 0.107213 0.124261 55.845 8.46625e-08 
397 1 0.14293 0.0357144 0.124284 55.845 2.57249e-07 
398 1 0.142934 0.0713992 0.166562 55.845 -2.0542e-07 
399 1 0.178656 0.0713427 0.124175 55.845 1.3846e-07 
400 1 0.178515 0.107133 0.166639 55.845 -3.82223e-07 
401 1 0.214275 0.10721 0.124319 55.845 3.83906e-08 
408 1 0.142943 -2.84896e-05 0.166744 55.845 -2.80123e-07 
409 1 0.178638 -3.43771e-05 0.124103 55.845 3.4003e-07 
410 1 0.178607 0.0356717 0.166452 55.845 -3.06125e-07 
411 1 0.214219 0.0356654 0.124156 55.845 2.35167e-07 
412 1 0.214236 0.0714108 0.166416 55.845 -2.74342e-07 
413 1 0.250032 0.071443 0.124373 55.845 1.16199e-07 
414 1 0.249971 0.107181 0.16685 55.845 -3.70469e-07 
424 1 0.214252 -3.6588e-05 0.166706 55.845 -3.6233e-07 
426 1 0.249931 0.0357089 0.16683 55.845 -5.10599e-07 
489 1 0.142857 0.107143 0.0416667 55.845 2.37033e-07 
499 1 0.142857 0.0357143 0.0416667 55.845 3.15782e-07 
500 1 0.142917 0.0715094 0.0826535 55.845 -2.78657e-07 
501 1 0.178571 0.0714286 0.0416667 55.845 2.93737e-07 
502 1 0.17859 0.107105 0.0827545 55.845 -2.78187e-07 
503 1 0.214286 0.107143 0.0416667 55.845 1.97881e-07 
510 1 0.142746 2.48229e-05 0.0825369 55.845 -2.37774e-07 
511 1 0.178571 0 0.0416667 55.845 2.12814e-07 
512 1 0.178648 0.0358287 0.0827276 55.845 -1.79538e-07 
513 1 0.214286 0.0357143 0.0416667 55.845 1.58588e-07 
514 1 0.214317 0.0714036 0.0826252 55.845 -3.07712e-07 
515 1 0.25 0.0714286 0.0416667 55.845 1.43831e-07 
516 1 0.250065 0.107146 0.0826837 55.845 -2.07712e-07 
526 1 0.214248 -9.67381e-06 0.0826208 55.845 -7.09976e-08 
528 1 0.250059 0.0357445 0.0828134 55.845 -1.93344e-07 
581 1 0.142857 0.0714286 0 55.845 -8.54451e-08 
582 1 0.178571 0.107143 0 55.845 -1.92908e-08 
586 1 0.142857 0 0 55.845 -2.01564e-07 
587 1 0.178571 0.0357143 0 55.845 -1.42143e-07 
588 1 0.214286 0.0714286 0 55.845 -1.27771e-07 
589 1 0.25 0.107143 0 55.845 1.46197e-08 
594 1 0.214286 0 0 55.845 -1.41396e-07 
595 1 0.25 0.0357143 0 55.845 -7.94072e-08 
313 1 0.285803 0.107188 0.208291 55.845 1.95566e-07 
323 1 0.249877 -5.14984e-05 0.208268 55.845 1.39603e-07 
325 1 0.285665 0.0357528 0.208073 55.845 3.08423e-07 
327 1 0.321487 0.0714621 0.207854 55.845 1.12661e-07 
329 1 0.357166 0.107234 0.208053 55.845 1.36346e-07 
337 1 0.321433 1.43195e-05 0.20813 55.845 1.69326e-07 
339 1 0.357164 0.0356788 0.208125 55.845 1.80312e-07 
415 1 0.285657 0.107243 0.124233 55.845 9.81252e-08 
425 1 0.250047 -3.14737e-06 0.124423 55.845 4.26263e-07 
427 1 0.285754 0.0357517 0.124556 55.845 2.60377e-07 
428 1 0.285653 0.071554 0.166772 55.845 -4.3689e-07 
429 1 0.321456 0.0715322 0.124311 55.845 2.82881e-07 
430 1 0.321412 0.107265 0.166718 55.845 -3.95399e-07 
431 1 0.357124 0.107141 0.124203 55.845 2.05578e-07 
439 1 0.321429 0.000109408 0.124564 55.845 3.00273e-07 
440 1 0.321524 0.0357573 0.166782 55.845 -4.98824e-07 
441 1 0.357136 0.0356889 0.124261 55.845 1.5389e-07 
442 1 0.357073 0.0714668 0.166645 55.845 -3.68363e-07 
517 1 0.285714 0.107143 0.0416667 55.845 9.79568e-08 
527 1 0.25 0 0.0416667 55.845 1.16291e-07 
529 1 0.285714 0.0357143 0.0416667 55.845 8.07438e-08 
530 1 0.285689 0.0714605 0.0827816 55.845 -1.73761e-07 
531 1 0.321429 0.0714286 0.0416667 55.845 1.36631e-07 
532 1 0.321493 0.107175 0.0826671 55.845 -1.93165e-07 
533 1 0.357143 0.107143 0.0416667 55.845 2.18828e-07 
603 1 0.357143 0.0714286 0 55.845 -7.88056e-09 
541 1 0.321429 0 0.0416667 55.845 1.44651e-07 
542 1 0.32142 0.035813 0.0827874 55.845 -1.99797e-07 
543 1 0.357143 0.0357143 0.0416667 55.845 1.90805e-07 
544 1 0.357122 0.0713843 0.0827413 55.845 -1.32657e-07 
602 1 0.321429 0.0357143 0 55.845 -1.12903e-08 
596 1 0.285714 0.0714286 0 55.845 -6.64977e-08 
597 1 0.321429 0.107143 0 55.845 2.40845e-08 
612 1 0.464286 0.0357143 0 55.845 4.93911e-08 
611 1 0.428571 0 0 55.845 1.16698e-07 
610 1 0.464286 0.107143 0 55.845 -2.97707e-08 
609 1 0.428571 0.0714286 0 55.845 5.36311e-08 
608 1 0.392857 0.0357143 0 55.845 3.31759e-08 
341 1 0.39289 0.0715888 0.208018 55.845 1.40316e-07 
343 1 0.428533 0.1071 0.208207 55.845 2.40878e-07 
348 1 0.392862 -3.88994e-05 0.208093 55.845 5.17152e-08 
350 1 0.42856 0.0357753 0.208053 55.845 4.08953e-07 
352 1 0.464323 0.071471 0.208047 55.845 2.6804e-07 
355 1 0.464257 8.73928e-05 0.208147 55.845 2.95957e-07 
443 1 0.392829 0.0713785 0.124331 55.845 2.97988e-07 
444 1 0.392923 0.107201 0.166459 55.845 -4.19815e-07 
445 1 0.428582 0.107051 0.12431 55.845 3.72878e-07 
604 1 0.392857 0.107143 0 55.845 -6.71538e-08 
450 1 0.392805 -3.95324e-05 0.124365 55.845 1.36918e-07 
451 1 0.392801 0.0356728 0.166842 55.845 -4.55831e-07 
452 1 0.428626 0.0356318 0.124235 55.845 2.44495e-07 
453 1 0.428569 0.0713779 0.166766 55.845 -5.03546e-07 
454 1 0.464324 0.0714563 0.124252 55.845 4.0092e-07 
455 1 0.464277 0.107127 0.166763 55.845 -4.95734e-07 
456 1 0.428508 -7.57214e-05 0.16669 55.845 -4.63393e-07 
457 1 0.464246 -5.69417e-05 0.124281 55.845 2.733e-07 
458 1 0.464303 0.0356952 0.166846 55.845 -6.25276e-07 
545 1 0.392857 0.0714286 0.0416667 55.845 1.76294e-07 
546 1 0.392889 0.107035 0.0827542 55.845 -1.10762e-07 
547 1 0.428571 0.107143 0.0416667 55.845 2.11313e-07 
552 1 0.392857 0 0.0416667 55.845 1.35524e-07 
553 1 0.392782 0.0357117 0.0827074 55.845 -1.60128e-07 
554 1 0.428571 0.0357143 0.0416667 55.845 2.6019e-07 
555 1 0.42863 0.0714258 0.0828328 55.845 -1.48804e-07 
556 1 0.464286 0.0714286 0.0416667 55.845 1.06265e-07 
557 1 0.464269 0.107033 0.0826851 55.845 -6.00597e-08 
558 1 0.428509 -1.84124e-05 0.0827056 55.845 -3.24194e-07 
559 1 0.464286 0 0.0416667 55.845 1.89676e-07 
560 1 0.464324 0.0356712 0.0827203 55.845 -2.58446e-07 
255 1 -2.98324e-05 0.178617 0.208256 55.845 2.66151e-07 
257 1 0.03573 0.214374 0.208175 55.845 2.99112e-07 
261 1 0.0358216 0.142884 0.208217 55.845 2.72659e-07 
263 1 0.0715176 0.178584 0.208132 55.845 1.22395e-07 
265 1 0.107079 0.214318 0.208069 55.845 2.33616e-08 
273 1 0.107214 0.142885 0.2081 55.845 4.44679e-08 
357 1 -5.43067e-05 0.178521 0.124223 55.845 5.94119e-07 
358 1 7.34025e-05 0.214267 0.166571 55.845 -4.42617e-07 
359 1 0.0357003 0.214264 0.12434 55.845 3.67571e-07 
360 1 0.0358101 0.249912 0.166597 55.845 -3.91082e-07 
362 1 4.08533e-05 0.142898 0.166892 55.845 -4.36822e-07 
363 1 0.0356392 0.142956 0.124456 55.845 4.87541e-07 
364 1 0.0356269 0.17863 0.166804 55.845 -5.41292e-07 
365 1 0.0713762 0.17852 0.124417 55.845 2.21849e-07 
366 1 0.0713927 0.214202 0.166495 55.845 -2.88159e-07 
367 1 0.107139 0.214286 0.124171 55.845 -2.02543e-09 
368 1 0.107067 0.249923 0.166665 55.845 -1.81364e-07 
374 1 0.0713987 0.142892 0.16682 55.845 -3.21414e-07 
375 1 0.107158 0.142868 0.124437 55.845 1.03092e-07 
376 1 0.107191 0.178684 0.166732 55.845 -2.33793e-07 
459 1 0 0.178571 0.0416667 55.845 4.57959e-07 
460 1 -4.25452e-05 0.214249 0.0826488 55.845 -4.13174e-07 
461 1 0.0357143 0.214286 0.0416667 55.845 3.66393e-07 
462 1 0.0356509 0.249979 0.0827828 55.845 -3.9422e-07 
464 1 -7.86275e-05 0.142954 0.0827393 55.845 -3.02114e-07 
465 1 0.0357143 0.142857 0.0416667 55.845 2.69599e-07 
466 1 0.0357802 0.178588 0.0827011 55.845 -2.53631e-07 
467 1 0.0714286 0.178571 0.0416667 55.845 2.44806e-07 
468 1 0.0712938 0.214234 0.0825413 55.845 -3.55202e-07 
469 1 0.107143 0.214286 0.0416667 55.845 3.66015e-07 
470 1 0.107158 0.250065 0.0827537 55.845 -3.10838e-07 
476 1 0.0714345 0.142858 0.0828765 55.845 -2.9045e-07 
477 1 0.107143 0.142857 0.0416667 55.845 2.12504e-07 
478 1 0.107133 0.178553 0.0828802 55.845 -3.67528e-07 
561 1 0 0.214286 0 55.845 -3.00728e-07 
562 1 0.0357143 0.25 0 55.845 -2.11204e-07 
563 1 0 0.142857 0 55.845 -2.08384e-07 
564 1 0.0357143 0.178571 0 55.845 -1.76128e-07 
565 1 0.0714286 0.214286 0 55.845 -1.7792e-07 
566 1 0.107143 0.25 0 55.845 -4.91526e-08 
569 1 0.0714286 0.142857 0 55.845 -7.25504e-08 
570 1 0.107143 0.178571 0 55.845 -6.80037e-08 
275 1 0.142852 0.178635 0.208196 55.845 1.3481e-07 
277 1 0.178553 0.214357 0.208075 55.845 2.63669e-07 
287 1 0.178628 0.142875 0.20809 55.845 2.696e-07 
289 1 0.214216 0.178532 0.208044 55.845 3.19057e-07 
291 1 0.250017 0.214313 0.208107 55.845 1.57124e-07 
301 1 0.249989 0.142841 0.208155 55.845 1.66628e-07 
377 1 0.142908 0.178629 0.12438 55.845 -1.11706e-08 
378 1 0.142851 0.214337 0.166883 55.845 -2.04219e-07 
379 1 0.178496 0.21435 0.12421 55.845 1.1784e-07 
388 1 0.142807 0.142939 0.166647 55.845 -2.49493e-07 
389 1 0.178571 0.14289 0.124344 55.845 1.13925e-07 
390 1 0.178563 0.178574 0.166709 55.845 -4.43169e-07 
391 1 0.214249 0.178577 0.124332 55.845 1.37353e-07 
392 1 0.214271 0.214141 0.166747 55.845 -3.03616e-07 
393 1 0.250067 0.214288 0.124513 55.845 1.42449e-07 
402 1 0.214291 0.142859 0.166779 55.845 -3.25264e-07 
403 1 0.249969 0.142815 0.124316 55.845 8.68577e-08 
404 1 0.249981 0.178514 0.166841 55.845 -3.87883e-07 
479 1 0.142857 0.178571 0.0416667 55.845 2.30327e-07 
480 1 0.14287 0.21434 0.0828239 55.845 -3.88694e-07 
481 1 0.178571 0.214286 0.0416667 55.845 4.2273e-07 
490 1 0.142921 0.142926 0.0828483 55.845 -3.56077e-07 
491 1 0.178571 0.142857 0.0416667 55.845 1.88193e-07 
492 1 0.178527 0.178639 0.0826323 55.845 -3.78049e-07 
493 1 0.214286 0.178571 0.0416667 55.845 3.31462e-07 
494 1 0.214349 0.214311 0.0828098 55.845 -4.54101e-07 
495 1 0.25 0.214286 0.0416667 55.845 3.23544e-07 
504 1 0.214241 0.142812 0.0826692 55.845 -3.41981e-07 
505 1 0.25 0.142857 0.0416667 55.845 2.34588e-07 
506 1 0.250023 0.178484 0.0827992 55.845 -2.38565e-07 
571 1 0.142857 0.214286 0 55.845 2.80829e-08 
576 1 0.142857 0.142857 0 55.845 2.41943e-08 
577 1 0.178571 0.178571 0 55.845 1.06094e-07 
578 1 0.214286 0.214286 0 55.845 1.10441e-07 
583 1 0.214286 0.142857 0 55.845 1.18073e-07 
584 1 0.25 0.178571 0 55.845 1.48644e-07 
303 1 0.285722 0.178497 0.207965 55.845 1.21507e-07 
305 1 0.32146 0.214196 0.208009 55.845 1.075e-07 
315 1 0.321485 0.14291 0.208022 55.845 8.25002e-08 
317 1 0.357199 0.178601 0.208142 55.845 1.71116e-07 
405 1 0.285659 0.178554 0.124311 55.845 1.80289e-07 
406 1 0.285811 0.214146 0.166704 55.845 -3.44282e-07 
407 1 0.321441 0.214325 0.124235 55.845 2.5651e-07 
416 1 0.285671 0.14286 0.166792 55.845 -3.03818e-07 
417 1 0.321487 0.142833 0.12414 55.845 2.32052e-07 
418 1 0.321535 0.178507 0.166727 55.845 -3.90732e-07 
419 1 0.357203 0.17865 0.124418 55.845 1.92885e-07 
420 1 0.357218 0.21425 0.16659 55.845 -4.32528e-07 
432 1 0.357154 0.142893 0.166587 55.845 -2.94711e-07 
507 1 0.285714 0.178571 0.0416667 55.845 1.66312e-07 
508 1 0.285687 0.214212 0.0826695 55.845 -2.13551e-07 
509 1 0.321429 0.214286 0.0416667 55.845 1.37364e-07 
518 1 0.285678 0.14275 0.0827306 55.845 -1.4107e-07 
519 1 0.321429 0.142857 0.0416667 55.845 2.20093e-07 
520 1 0.32134 0.178516 0.0826526 55.845 -1.09527e-07 
521 1 0.357143 0.178571 0.0416667 55.845 1.72764e-07 
522 1 0.357126 0.214282 0.0826176 55.845 -6.95517e-09 
534 1 0.357163 0.14292 0.0825074 55.845 -1.39771e-07 
585 1 0.285714 0.214286 0 55.845 1.24773e-07 
590 1 0.285714 0.142857 0 55.845 1.16057e-07 
591 1 0.321429 0.178571 0 55.845 7.24654e-08 
592 1 0.357143 0.214286 0 55.845 -3.97523e-08 
598 1 0.357143 0.142857 0 55.845 -1.5099e-07 
319 1 0.392872 0.214353 0.207904 55.845 1.24322e-07 
321 1 0.428548 0.249973 0.208038 55.845 2.97605e-07 
331 1 0.392883 0.142816 0.208051 55.845 1.74498e-07 
333 1 0.428591 0.178565 0.208086 55.845 2.49674e-07 
335 1 0.464205 0.214205 0.208086 55.845 1.91709e-07 
345 1 0.464166 0.142835 0.208102 55.845 1.39948e-07 
606 1 0.464286 0.178571 0 55.845 -1.21481e-07 
421 1 0.392939 0.214329 0.124083 55.845 4.45397e-07 
422 1 0.392803 0.250021 0.166527 55.845 -5.12675e-07 
423 1 0.428602 0.250048 0.124229 55.845 4.23487e-07 
433 1 0.392899 0.142789 0.124323 55.845 2.84448e-07 
434 1 0.392908 0.178517 0.166607 55.845 -4.35273e-07 
435 1 0.428584 0.17855 0.124281 55.845 4.21947e-07 
436 1 0.428507 0.214287 0.166559 55.845 -5.85645e-07 
437 1 0.464279 0.214239 0.124473 55.845 4.43408e-07 
605 1 0.428571 0.142857 0 55.845 -1.72118e-07 
446 1 0.428588 0.142792 0.166727 55.845 -4.58381e-07 
447 1 0.464294 0.142824 0.124198 55.845 4.83388e-07 
448 1 0.464235 0.178486 0.166652 55.845 -5.14557e-07 
523 1 0.392857 0.214286 0.0416667 55.845 1.89523e-08 
524 1 0.392816 0.250005 0.0826784 55.845 -7.49174e-08 
525 1 0.428571 0.25 0.0416667 55.845 9.24315e-09 
535 1 0.392857 0.142857 0.0416667 55.845 1.92779e-07 
536 1 0.392746 0.178505 0.0825778 55.845 -3.38603e-08 
537 1 0.428571 0.178571 0.0416667 55.845 1.68596e-08 
538 1 0.428708 0.214328 0.0827127 55.845 1.3947e-08 
539 1 0.464286 0.214286 0.0416667 55.845 -6.10281e-08 
548 1 0.428561 0.142802 0.0828162 55.845 -5.55212e-08 
549 1 0.464286 0.142857 0.0416667 55.845 1.57779e-07 
550 1 0.464392 0.17859 0.0825648 55.845 3.5013e-08 
593 1 0.392857 0.25 0 55.845 -7.57188e-09 
599 1 0.392857 0.178571 0 55.845 -1.05546e-07 
600 1 0.428571 0.214286 0 55.845 -1.38108e-07 
3 1 4.18183e-05 0.107152 0.457958 55.845 -3.49872e-07 
7 1 3.27139e-05 0.0356669 0.457847 55.845 -1.84324e-07 
8 1 0.0357564 0.0713742 0.457913 55.845 -2.03272e-07 
9 1 0.0714895 0.107165 0.457678 55.845 -3.31832e-07 
13 1 0.0357239 -2.59343e-05 0.457939 55.845 -1.36017e-07 
14 1 0.0713614 0.0355644 0.457994 55.845 -1.32639e-07 
15 1 0.107208 0.0713475 0.457884 55.845 -2.73401e-07 
20 1 0.107142 8.4174e-05 0.457997 55.845 -3.51345e-07 
55 1 7.3499e-06 0.107179 0.373255 55.845 -2.10063e-07 
63 1 5.70897e-05 0.0357058 0.373281 55.845 -2.19165e-07 
64 1 -6.05466e-05 0.0714514 0.415364 55.845 2.39293e-07 
65 1 0.0357052 0.0714421 0.373067 55.845 -1.88873e-07 
66 1 0.0358371 0.107197 0.415348 55.845 2.18155e-07 
67 1 0.0715087 0.107184 0.37314 55.845 -3.45968e-07 
74 1 2.70775e-05 3.77749e-05 0.415396 55.845 3.53514e-07 
75 1 0.0357146 0.000105458 0.373328 55.845 -2.43623e-07 
76 1 0.0357386 0.0357045 0.415451 55.845 1.42147e-07 
77 1 0.0714158 0.0357484 0.373025 55.845 -1.76039e-07 
78 1 0.0715151 0.0714049 0.415298 55.845 2.44347e-07 
79 1 0.107092 0.0714216 0.373266 55.845 -3.97463e-07 
80 1 0.107254 0.107101 0.415364 55.845 4.77089e-07 
88 1 0.071442 -2.11232e-07 0.415279 55.845 2.48573e-07 
89 1 0.107278 -4.86633e-05 0.373098 55.845 -2.2961e-07 
90 1 0.107205 0.0357198 0.415296 55.845 2.83083e-07 
157 1 -2.27412e-05 0.107081 0.289018 55.845 -3.08765e-07 
165 1 -3.9334e-07 0.0356834 0.288997 55.845 -2.08657e-07 
166 1 -1.69991e-05 0.0713851 0.330946 55.845 2.99491e-07 
167 1 0.0356219 0.0713684 0.288991 55.845 -3.01045e-07 
168 1 0.0358043 0.107157 0.330819 55.845 3.08373e-07 
169 1 0.071439 0.107168 0.289047 55.845 -4.22526e-07 
176 1 3.64287e-05 -8.20192e-05 0.330926 55.845 1.07322e-07 
177 1 0.0356925 -5.36203e-06 0.289134 55.845 -1.43196e-07 
178 1 0.0356882 0.035676 0.330673 55.845 1.06881e-07 
179 1 0.0713629 0.0357209 0.289161 55.845 -2.37265e-07 
180 1 0.0713796 0.0713551 0.330874 55.845 2.54773e-07 
181 1 0.107127 0.0713776 0.289132 55.845 -3.45684e-07 
182 1 0.107142 0.107171 0.330666 55.845 3.76722e-07 
190 1 0.0714245 -7.36602e-05 0.330853 55.845 1.1527e-07 
191 1 0.107152 2.20197e-05 0.289186 55.845 -1.71423e-07 
192 1 0.107153 0.0357496 0.33089 55.845 2.1404e-07 
268 1 -8.29126e-05 0.0714227 0.248237 55.845 6.09184e-08 
270 1 0.0357952 0.107124 0.24855 55.845 7.48526e-08 
278 1 8.15084e-06 6.70447e-05 0.248362 55.845 9.62988e-08 
280 1 0.0356298 0.0357938 0.248219 55.845 3.77342e-08 
282 1 0.0713774 0.0713837 0.248472 55.845 4.92747e-08 
284 1 0.107188 0.10718 0.248418 55.845 2.33938e-07 
292 1 0.0714943 2.28627e-05 0.248466 55.845 1.47137e-08 
294 1 0.10714 0.0356852 0.248552 55.845 9.13368e-09 
16 1 0.142872 0.10711 0.458032 55.845 -2.49368e-07 
21 1 0.142944 0.0357608 0.457882 55.845 -3.32909e-07 
22 1 0.17875 0.0713823 0.457996 55.845 -9.48931e-08 
23 1 0.214333 0.107071 0.458054 55.845 -5.83273e-08 
27 1 0.178665 -0.000178081 0.457866 55.845 -4.50426e-07 
28 1 0.214377 0.0358275 0.457951 55.845 -3.46989e-07 
29 1 0.250195 0.0714538 0.457941 55.845 -1.77687e-07 
81 1 0.14285 0.107134 0.373296 55.845 -3.07176e-07 
91 1 0.142947 0.035659 0.373126 55.845 -2.82991e-07 
92 1 0.142977 0.0713021 0.415372 55.845 3.83035e-07 
93 1 0.178608 0.0713814 0.373255 55.845 -2.82801e-07 
94 1 0.178613 0.107188 0.415356 55.845 2.4577e-07 
95 1 0.214409 0.107076 0.373216 55.845 -1.55119e-07 
102 1 0.142828 -0.000131656 0.415565 55.845 4.01141e-07 
103 1 0.178521 -5.45468e-05 0.373167 55.845 -3.50034e-07 
104 1 0.178698 0.0356276 0.415473 55.845 3.26487e-07 
105 1 0.214356 0.0357228 0.373152 55.845 -2.05885e-07 
106 1 0.214358 0.0715139 0.415347 55.845 2.40701e-07 
107 1 0.250136 0.0715013 0.373005 55.845 -2.40958e-07 
108 1 0.249965 0.10709 0.415333 55.845 2.8438e-07 
118 1 0.214329 3.14378e-05 0.415289 55.845 4.30915e-07 
120 1 0.249969 0.0357965 0.415246 55.845 3.26293e-07 
183 1 0.142869 0.107178 0.289236 55.845 -3.02204e-07 
193 1 0.142814 0.0357915 0.289186 55.845 -3.48892e-07 
194 1 0.142832 0.0714556 0.330866 55.845 3.45812e-07 
195 1 0.178536 0.0714617 0.289184 55.845 -2.81238e-07 
196 1 0.178566 0.107157 0.330969 55.845 2.01319e-07 
197 1 0.214194 0.107254 0.289162 55.845 -2.29558e-07 
204 1 0.142875 5.5563e-05 0.330819 55.845 3.79287e-07 
205 1 0.178447 4.00175e-05 0.289065 55.845 -4.57383e-07 
206 1 0.178614 0.0356115 0.330878 55.845 4.3582e-07 
207 1 0.214259 0.0357265 0.288992 55.845 -4.2483e-07 
208 1 0.214311 0.0713869 0.330943 55.845 4.19552e-07 
209 1 0.250034 0.0714157 0.288897 55.845 -3.17723e-07 
210 1 0.250029 0.10722 0.330638 55.845 2.28483e-07 
220 1 0.214305 2.34283e-05 0.330756 55.845 5.72355e-07 
222 1 0.249951 0.0356883 0.330635 55.845 5.21111e-07 
296 1 0.142995 0.0714943 0.248402 55.845 8.92382e-08 
298 1 0.178455 0.107127 0.248577 55.845 2.32968e-07 
306 1 0.142963 7.43435e-05 0.248474 55.845 7.80532e-08 
308 1 0.178666 0.0357491 0.248516 55.845 1.78941e-07 
310 1 0.214274 0.0714904 0.248438 55.845 1.18828e-07 
312 1 0.249974 0.107245 0.24852 55.845 2.04778e-07 
322 1 0.214248 2.40413e-05 0.248573 55.845 1.24415e-07 
324 1 0.250006 0.0356659 0.248466 55.845 1.68304e-07 
30 1 0.285793 0.107065 0.457854 55.845 -2.75404e-07 
35 1 0.250043 -1.16474e-06 0.458013 55.845 -4.27951e-07 
36 1 0.285754 0.0357797 0.457873 55.845 -3.44845e-07 
37 1 0.321597 0.0714887 0.457904 55.845 -2.0329e-07 
38 1 0.357228 0.107098 0.458124 55.845 -2.99028e-07 
42 1 0.321352 -3.07258e-05 0.457958 55.845 -3.24353e-07 
43 1 0.35712 0.0357418 0.458008 55.845 -1.87631e-07 
109 1 0.285812 0.10713 0.373182 55.845 -2.23401e-07 
119 1 0.250074 5.56334e-05 0.373135 55.845 -2.65639e-07 
121 1 0.285645 0.0357466 0.37304 55.845 -1.6008e-07 
122 1 0.285792 0.0713637 0.415351 55.845 2.78329e-07 
123 1 0.32145 0.0714433 0.373337 55.845 -2.77377e-07 
124 1 0.321462 0.107121 0.415315 55.845 3.6068e-07 
125 1 0.357237 0.10708 0.373307 55.845 -1.5105e-07 
133 1 0.32141 2.44408e-05 0.373251 55.845 -3.97291e-07 
134 1 0.321459 0.03574 0.415465 55.845 2.91086e-07 
135 1 0.357141 0.0357535 0.373038 55.845 -2.56241e-07 
136 1 0.357175 0.0714009 0.415515 55.845 2.10206e-07 
211 1 0.285708 0.107216 0.288977 55.845 -4.29766e-07 
221 1 0.24993 4.44301e-05 0.289094 55.845 -4.1537e-07 
223 1 0.285855 0.0357712 0.288946 55.845 -4.36841e-07 
224 1 0.285737 0.0714334 0.330822 55.845 4.63657e-07 
225 1 0.321559 0.0715091 0.289147 55.845 -4.35796e-07 
226 1 0.321528 0.107235 0.330902 55.845 4.06041e-07 
227 1 0.357207 0.107155 0.289083 55.845 -4.69585e-07 
235 1 0.321389 2.5566e-05 0.289128 55.845 -3.55413e-07 
236 1 0.32142 0.0357258 0.330949 55.845 4.7872e-07 
237 1 0.357116 0.03568 0.288865 55.845 -6.15917e-07 
238 1 0.35719 0.0713851 0.330783 55.845 4.6555e-07 
326 1 0.285785 0.0714459 0.248437 55.845 1.99404e-07 
328 1 0.321496 0.107175 0.248436 55.845 3.00497e-07 
338 1 0.321384 0.035777 0.24846 55.845 1.59669e-07 
340 1 0.357201 0.0714074 0.248438 55.845 2.4253e-07 
44 1 0.392857 0.0713772 0.458125 55.845 -1.01708e-07 
45 1 0.428682 0.107052 0.458088 55.845 -4.39552e-07 
47 1 0.392842 -9.12915e-05 0.457805 55.845 -1.67959e-07 
48 1 0.428481 0.0355708 0.457883 55.845 -1.40623e-07 
49 1 0.464309 0.0714182 0.458074 55.845 -3.9449e-07 
50 1 0.464349 -0.000106925 0.457822 55.845 -1.48034e-07 
137 1 0.392959 0.0713598 0.373138 55.845 -2.20637e-07 
138 1 0.392906 0.10701 0.415462 55.845 2.92189e-07 
139 1 0.428557 0.107077 0.373371 55.845 -1.83936e-07 
144 1 0.392848 0.000129219 0.373111 55.845 -4.11134e-07 
145 1 0.392829 0.0357041 0.415475 55.845 1.90714e-07 
146 1 0.4286 0.0355897 0.373111 55.845 -2.31018e-07 
147 1 0.428551 0.0713411 0.415489 55.845 3.01923e-07 
148 1 0.464291 0.0713304 0.373027 55.845 -3.08779e-07 
149 1 0.464318 0.107046 0.415445 55.845 5.10126e-07 
150 1 0.428593 -0.00010222 0.415412 55.845 3.53389e-07 
151 1 0.46428 4.02942e-05 0.373201 55.845 -3.92388e-07 
152 1 0.46428 0.0355893 0.41544 55.845 3.16456e-07 
239 1 0.392797 0.0714567 0.288938 55.845 -4.04643e-07 
240 1 0.392843 0.107111 0.330874 55.845 3.48718e-07 
241 1 0.428586 0.107067 0.28912 55.845 -3.77928e-07 
246 1 0.392881 -8.45681e-05 0.288915 55.845 -4.95271e-07 
247 1 0.392868 0.0357185 0.330831 55.845 4.29944e-07 
248 1 0.428548 0.0356765 0.288998 55.845 -4.81581e-07 
249 1 0.428637 0.0713614 0.330744 55.845 4.05342e-07 
250 1 0.464293 0.0714639 0.28899 55.845 -3.60242e-07 
251 1 0.464189 0.107111 0.330936 55.845 4.8488e-07 
252 1 0.428491 -2.68692e-05 0.330782 55.845 4.6402e-07 
253 1 0.464284 -7.94423e-05 0.289097 55.845 -3.29899e-07 
254 1 0.464272 0.0357021 0.330767 55.845 3.76036e-07 
342 1 0.392869 0.107203 0.248448 55.845 9.85455e-08 
349 1 0.392793 0.0357191 0.248431 55.845 2.61819e-07 
351 1 0.428599 0.0714497 0.248494 55.845 -1.14068e-09 
353 1 0.464252 0.107196 0.248369 55.845 1.62274e-07 
354 1 0.428528 2.73732e-05 0.248386 55.845 3.00823e-07 
356 1 0.464314 0.0357342 0.248392 55.845 1.63928e-07 
1 1 0.000101609 0.178739 0.458094 55.845 -3.19361e-07 
2 1 0.0358306 0.214327 0.457881 55.845 -2.67869e-07 
4 1 0.0357741 0.142868 0.457957 55.845 -3.01967e-07 
5 1 0.071444 0.178629 0.457839 55.845 -3.9084e-07 
6 1 0.107187 0.2144 0.457835 55.845 -3.13687e-07 
10 1 0.107075 0.142863 0.457773 55.845 -4.09038e-07 
51 1 -7.22385e-05 0.178595 0.373266 55.845 -1.62223e-07 
52 1 1.69476e-05 0.21431 0.415385 55.845 1.64835e-07 
53 1 0.0356942 0.214245 0.373231 55.845 -2.63016e-08 
54 1 0.0356484 0.250019 0.415289 55.845 3.06332e-07 
56 1 2.7767e-05 0.142882 0.415499 55.845 2.80812e-07 
57 1 0.0357137 0.142797 0.373149 55.845 -2.90763e-07 
58 1 0.0357582 0.178563 0.415192 55.845 3.27389e-07 
59 1 0.0714456 0.178576 0.372972 55.845 -4.26907e-07 
60 1 0.0715108 0.214262 0.415474 55.845 3.7266e-07 
61 1 0.107255 0.21439 0.373043 55.845 -4.32491e-07 
62 1 0.107157 0.249986 0.415505 55.845 4.79517e-07 
68 1 0.0714885 0.142938 0.415285 55.845 4.10783e-07 
69 1 0.107268 0.142783 0.37308 55.845 -4.68625e-07 
70 1 0.107133 0.178597 0.415372 55.845 5.75864e-07 
153 1 2.20804e-06 0.178593 0.289038 55.845 -7.14842e-08 
154 1 -7.81547e-05 0.214318 0.330871 55.845 1.79522e-07 
155 1 0.0356697 0.214367 0.289088 55.845 -8.09019e-08 
156 1 0.0357054 0.25005 0.33073 55.845 2.11104e-07 
158 1 1.96605e-05 0.142923 0.330753 55.845 3.39743e-07 
159 1 0.0357043 0.142847 0.289056 55.845 -3.7929e-07 
160 1 0.035704 0.178563 0.330826 55.845 2.99522e-07 
161 1 0.0714577 0.178622 0.289147 55.845 -3.54773e-07 
162 1 0.0715034 0.21438 0.330787 55.845 4.40151e-07 
163 1 0.107211 0.214397 0.288946 55.845 -3.43247e-07 
164 1 0.10724 0.249982 0.330875 55.845 2.95692e-07 
170 1 0.0714121 0.14289 0.33063 55.845 5.21122e-07 
171 1 0.107138 0.142932 0.289022 55.845 -4.41735e-07 
172 1 0.107115 0.17859 0.330784 55.845 4.60017e-07 
256 1 -6.1497e-06 0.214286 0.24828 55.845 -3.58254e-07 
258 1 0.0356505 0.250011 0.24833 55.845 -5.04858e-08 
260 1 5.06616e-05 0.142868 0.248499 55.845 -2.00874e-07 
262 1 0.0357575 0.178602 0.248593 55.845 -4.58015e-08 
264 1 0.0713549 0.214227 0.248358 55.845 6.43699e-08 
266 1 0.107171 0.250041 0.248407 55.845 2.97297e-07 
272 1 0.0715527 0.142915 0.248462 55.845 1.74677e-07 
274 1 0.107098 0.178661 0.248604 55.845 3.73033e-07 
11 1 0.142826 0.178586 0.457968 55.845 -3.01487e-07 
12 1 0.178559 0.214251 0.457849 55.845 -7.08979e-08 
17 1 0.178481 0.142984 0.458209 55.845 -7.93091e-08 
18 1 0.214239 0.17849 0.458188 55.845 -7.52157e-08 
19 1 0.249928 0.214298 0.457776 55.845 -5.32085e-08 
24 1 0.249905 0.142898 0.457994 55.845 -1.21152e-07 
71 1 0.142872 0.178555 0.373141 55.845 -4.21537e-07 
72 1 0.142921 0.214341 0.415386 55.845 4.3048e-07 
73 1 0.178543 0.214442 0.37316 55.845 -4.95002e-07 
82 1 0.142935 0.142885 0.415428 55.845 3.72453e-07 
83 1 0.178597 0.142825 0.373066 55.845 -2.1229e-07 
84 1 0.178541 0.178568 0.415464 55.845 3.13823e-07 
85 1 0.214199 0.178606 0.373239 55.845 -3.21959e-07 
86 1 0.214228 0.214326 0.415473 55.845 2.21774e-07 
87 1 0.249964 0.214371 0.373067 55.845 -4.94981e-07 
96 1 0.214215 0.14287 0.41544 55.845 1.31542e-07 
97 1 0.249954 0.142895 0.373281 55.845 -3.01267e-07 
98 1 0.25001 0.178614 0.415246 55.845 2.82238e-07 
173 1 0.142836 0.178605 0.289141 55.845 -3.43057e-07 
174 1 0.142835 0.214441 0.33073 55.845 3.44888e-07 
175 1 0.178494 0.214371 0.289061 55.845 -2.68295e-07 
184 1 0.142907 0.142956 0.330726 55.845 3.63132e-07 
185 1 0.178592 0.142946 0.288911 55.845 -2.36433e-07 
186 1 0.17853 0.178757 0.330831 55.845 1.30713e-07 
187 1 0.214327 0.178668 0.289164 55.845 -3.67393e-07 
188 1 0.21423 0.21439 0.331039 55.845 3.51793e-07 
189 1 0.24998 0.214328 0.289096 55.845 -5.38914e-07 
198 1 0.214312 0.142906 0.330786 55.845 1.58493e-07 
199 1 0.250058 0.142894 0.28909 55.845 -3.91731e-07 
200 1 0.250053 0.178672 0.330719 55.845 2.17762e-07 
276 1 0.142816 0.214441 0.248349 55.845 1.63893e-07 
286 1 0.142853 0.142836 0.24822 55.845 3.23738e-07 
288 1 0.178528 0.178612 0.24849 55.845 3.0866e-07 
290 1 0.214266 0.214324 0.248543 55.845 1.24401e-07 
300 1 0.214335 0.142871 0.248437 55.845 1.32628e-07 
302 1 0.250062 0.17858 0.248449 55.845 4.2157e-07 
25 1 0.285753 0.178603 0.457809 55.845 -2.5682e-07 
26 1 0.321395 0.214314 0.457965 55.845 -3.08276e-07 
31 1 0.32137 0.142918 0.457873 55.845 -2.99467e-07 
32 1 0.357126 0.178585 0.45793 55.845 -3.362e-07 
99 1 0.285733 0.178687 0.373032 55.845 -4.03339e-07 
100 1 0.285732 0.214325 0.415165 55.845 2.82544e-07 
101 1 0.321357 0.214358 0.372994 55.845 -4.92934e-07 
110 1 0.285705 0.142873 0.415308 55.845 3.18492e-07 
111 1 0.321414 0.142969 0.373211 55.845 -4.01384e-07 
112 1 0.321483 0.178708 0.415319 55.845 4.16513e-07 
113 1 0.35718 0.178461 0.372961 55.845 -2.61211e-07 
114 1 0.357123 0.214239 0.415357 55.845 2.57974e-07 
126 1 0.357123 0.142929 0.415394 55.845 3.07764e-07 
201 1 0.285703 0.17852 0.289034 55.845 -6.5375e-07 
202 1 0.285733 0.214398 0.330673 55.845 5.42771e-07 
203 1 0.32138 0.214338 0.288997 55.845 -6.43904e-07 
212 1 0.285643 0.142846 0.330811 55.845 3.39149e-07 
213 1 0.321505 0.142824 0.289136 55.845 -4.56775e-07 
214 1 0.321374 0.178603 0.330741 55.845 4.82228e-07 
215 1 0.357161 0.178449 0.289154 55.845 -5.29007e-07 