ITEM: TIMESTEP
5400
ITEM: NUMBER OF ATOMS
5880
ITEM: BOX BOUNDS pp pp ff
-28.005 28.005
-28.005 28.005
0 34.092
ITEM: ATOMS id type xs ys zs mass q 
259 1 6.58516e-06 0.107235 0.208041 55.845 3.31138e-08 
267 1 1.54767e-05 0.0357961 0.208105 55.845 9.46061e-10 
269 1 0.0357766 0.0714208 0.208148 55.845 2.11497e-08 
271 1 0.0714543 0.107127 0.208218 55.845 1.82298e-07 
279 1 0.0356878 1.77894e-05 0.208166 55.845 1.68384e-07 
281 1 0.0714399 0.0357359 0.208146 55.845 1.64798e-07 
283 1 0.107082 0.0715214 0.208051 55.845 1.7202e-07 
293 1 0.107203 2.12581e-05 0.208063 55.845 1.07381e-07 
361 1 -3.00876e-05 0.107208 0.12587 55.845 1.82358e-08 
369 1 -5.55645e-05 0.0357415 0.125781 55.845 -2.13015e-07 
370 1 3.37049e-06 0.0715147 0.166482 55.845 2.81177e-07 
371 1 0.0357447 0.0714744 0.125531 55.845 -2.09984e-07 
372 1 0.0357738 0.107047 0.166467 55.845 2.86567e-07 
373 1 0.0714392 0.10712 0.125621 55.845 -3.03732e-07 
380 1 6.09126e-05 4.13166e-05 0.166471 55.845 3.23823e-07 
381 1 0.0357788 -1.0297e-05 0.125729 55.845 -3.02453e-07 
382 1 0.0357394 0.0357427 0.16641 55.845 2.99933e-07 
383 1 0.0714915 0.0356636 0.125704 55.845 -3.3539e-07 
384 1 0.0713551 0.0713848 0.166353 55.845 3.72302e-07 
385 1 0.107103 0.0714364 0.125663 55.845 -4.11022e-07 
386 1 0.107062 0.107146 0.166424 55.845 3.94645e-07 
394 1 0.0714618 1.4011e-05 0.166473 55.845 2.20164e-07 
395 1 0.107119 -1.98917e-06 0.125723 55.845 -1.49484e-07 
396 1 0.10723 0.0357669 0.166456 55.845 3.19481e-07 
463 1 0 0.107143 0.0416667 55.845 1.48325e-07 
471 1 0 0.0357143 0.0416667 55.845 1.64866e-07 
472 1 -3.87235e-05 0.0713907 0.0841182 55.845 2.50368e-07 
473 1 0.0357143 0.0714286 0.0416667 55.845 1.98326e-07 
474 1 0.0357217 0.107155 0.0842474 55.845 1.07571e-08 
475 1 0.0714286 0.107143 0.0416667 55.845 -6.91999e-09 
482 1 2.42135e-05 5.02033e-05 0.0842112 55.845 -4.63564e-08 
483 1 0.0357143 0 0.0416667 55.845 7.49624e-08 
484 1 0.0356802 0.0357229 0.0841953 55.845 1.52976e-07 
485 1 0.0714286 0.0357143 0.0416667 55.845 1.33526e-07 
486 1 0.0714529 0.0714099 0.0841573 55.845 -6.71826e-08 
487 1 0.107143 0.0714286 0.0416667 55.845 -8.11035e-08 
488 1 0.107225 0.107163 0.0841517 55.845 -4.04208e-08 
496 1 0.0714332 -7.74535e-05 0.0841853 55.845 4.37655e-08 
497 1 0.107143 0 0.0416667 55.845 2.05898e-07 
498 1 0.107148 0.0356949 0.0843332 55.845 2.25761e-08 
567 1 0 0.0714286 0 55.845 1.47123e-07 
568 1 0.0357143 0.107143 0 55.845 -1.04883e-08 
572 1 0 0 0 55.845 -2.21107e-07 
573 1 0.0357143 0.0357143 0 55.845 -2.18136e-08 
574 1 0.0714286 0.0714286 0 55.845 -1.72762e-07 
575 1 0.107143 0.107143 0 55.845 -1.93768e-07 
579 1 0.0714286 0 0 55.845 3.34759e-08 
580 1 0.107143 0.0357143 0 55.845 -1.7888e-07 
285 1 0.142881 0.107122 0.207977 55.845 1.05225e-07 
295 1 0.142922 0.0357565 0.208168 55.845 1.03867e-07 
297 1 0.178559 0.0714353 0.208204 55.845 1.33729e-07 
299 1 0.214169 0.107011 0.208032 55.845 3.1104e-07 
307 1 0.178644 3.37613e-05 0.208101 55.845 -4.55442e-09 
309 1 0.214281 0.0357053 0.208206 55.845 1.73012e-07 
311 1 0.249997 0.0715001 0.208156 55.845 3.28461e-07 
387 1 0.142878 0.107164 0.125674 55.845 -4.08894e-07 
397 1 0.142846 0.0356722 0.125666 55.845 -3.42026e-07 
398 1 0.142841 0.0714091 0.166337 55.845 3.44226e-07 
399 1 0.178593 0.0714646 0.125597 55.845 -3.22045e-07 
400 1 0.178467 0.107161 0.16631 55.845 2.30789e-07 
401 1 0.214269 0.107108 0.125819 55.845 -1.34398e-07 
408 1 0.142875 -2.31004e-05 0.166384 55.845 3.16623e-07 
409 1 0.17864 4.27571e-05 0.125705 55.845 -3.27636e-07 
410 1 0.178563 0.0358753 0.166483 55.845 3.23754e-07 
411 1 0.214264 0.035725 0.125531 55.845 -2.1052e-07 
412 1 0.21428 0.0713028 0.166459 55.845 8.96356e-08 
413 1 0.250121 0.0713539 0.125741 55.845 4.28188e-08 
414 1 0.249886 0.107084 0.166478 55.845 -1.92566e-07 
424 1 0.214319 2.66236e-05 0.166335 55.845 4.1933e-07 
426 1 0.249918 0.035756 0.166445 55.845 5.7857e-08 
489 1 0.142857 0.107143 0.0416667 55.845 5.29466e-08 
499 1 0.142857 0.0357143 0.0416667 55.845 4.04443e-08 
500 1 0.14287 0.0713628 0.084157 55.845 1.26101e-08 
501 1 0.178571 0.0714286 0.0416667 55.845 1.09936e-07 
502 1 0.178527 0.107143 0.0842241 55.845 1.672e-07 
503 1 0.214286 0.107143 0.0416667 55.845 1.60575e-07 
510 1 0.142867 -6.32595e-05 0.0841896 55.845 1.54099e-07 
511 1 0.178571 0 0.0416667 55.845 5.66302e-09 
512 1 0.178663 0.0356022 0.0841674 55.845 1.71468e-08 
513 1 0.214286 0.0357143 0.0416667 55.845 1.01571e-07 
514 1 0.214311 0.0714281 0.0843189 55.845 2.06314e-08 
515 1 0.25 0.0714286 0.0416667 55.845 2.97105e-07 
516 1 0.250047 0.10713 0.0843123 55.845 -1.18905e-07 
526 1 0.214344 -7.66886e-05 0.0840986 55.845 -2.93575e-08 
528 1 0.250012 0.0356913 0.0842588 55.845 -2.39647e-08 
581 1 0.142857 0.0714286 0 55.845 -1.72376e-07 
582 1 0.178571 0.107143 0 55.845 1.66963e-08 
586 1 0.142857 0 0 55.845 1.32879e-08 
587 1 0.178571 0.0357143 0 55.845 -1.2672e-07 
588 1 0.214286 0.0714286 0 55.845 -2.18725e-08 
589 1 0.25 0.107143 0 55.845 -1.34008e-07 
594 1 0.214286 0 0 55.845 -7.08178e-08 
595 1 0.25 0.0357143 0 55.845 1.07069e-08 
313 1 0.285712 0.107182 0.208114 55.845 5.86266e-07 
323 1 0.250054 -3.72395e-05 0.208019 55.845 1.40629e-08 
325 1 0.285716 0.0356766 0.208108 55.845 2.43604e-07 
327 1 0.321434 0.0714854 0.208191 55.845 5.20035e-07 
329 1 0.357108 0.107148 0.208074 55.845 4.56197e-07 
337 1 0.321434 -0.000115454 0.208107 55.845 1.31604e-07 
339 1 0.357087 0.0357208 0.208214 55.845 4.25137e-07 
415 1 0.285684 0.107081 0.125641 55.845 7.25967e-08 
425 1 0.250065 -8.38006e-05 0.125735 55.845 -2.49091e-07 
427 1 0.285841 0.0356185 0.125784 55.845 -3.26357e-08 
428 1 0.285756 0.0714294 0.166455 55.845 -1.60612e-07 
429 1 0.321397 0.0714036 0.125761 55.845 -9.78706e-09 
430 1 0.321394 0.10719 0.166393 55.845 -1.21542e-07 
431 1 0.357116 0.107097 0.125695 55.845 -9.44256e-08 
439 1 0.321518 -1.62078e-05 0.125758 55.845 -1.85774e-07 
440 1 0.321483 0.0356835 0.166556 55.845 3.30209e-08 
441 1 0.357174 0.0357301 0.125813 55.845 -1.10712e-07 
442 1 0.35721 0.071427 0.16651 55.845 -1.22661e-08 
517 1 0.285714 0.107143 0.0416667 55.845 1.49439e-07 
527 1 0.25 0 0.0416667 55.845 4.00311e-09 
529 1 0.285714 0.0357143 0.0416667 55.845 2.27183e-07 
530 1 0.285799 0.0713284 0.0842085 55.845 -1.11615e-07 
531 1 0.321429 0.0714286 0.0416667 55.845 1.67428e-07 
532 1 0.321511 0.10712 0.0841731 55.845 -1.69507e-07 
533 1 0.357143 0.107143 0.0416667 55.845 1.09369e-07 
603 1 0.357143 0.0714286 0 55.845 -1.19567e-07 
541 1 0.321429 0 0.0416667 55.845 6.22259e-08 
542 1 0.321404 0.03572 0.0841303 55.845 -3.39913e-08 
543 1 0.357143 0.0357143 0.0416667 55.845 1.24156e-07 
544 1 0.357164 0.071328 0.0842528 55.845 -1.32906e-07 
602 1 0.321429 0.0357143 0 55.845 -6.55804e-08 
596 1 0.285714 0.0714286 0 55.845 -6.8639e-08 
597 1 0.321429 0.107143 0 55.845 -9.85128e-08 
612 1 0.464286 0.0357143 0 55.845 -1.61571e-08 
611 1 0.428571 0 0 55.845 -2.69253e-08 
610 1 0.464286 0.107143 0 55.845 -9.32435e-08 
609 1 0.428571 0.0714286 0 55.845 -1.87462e-07 
608 1 0.392857 0.0357143 0 55.845 -1.50282e-07 
341 1 0.392912 0.0714021 0.208086 55.845 4.96733e-07 
343 1 0.42853 0.107153 0.208229 55.845 2.91696e-07 
348 1 0.392883 -4.30202e-05 0.208211 55.845 3.27748e-07 
350 1 0.428554 0.0357003 0.208135 55.845 5.2548e-07 
352 1 0.464245 0.0714739 0.208017 55.845 4.42497e-07 
355 1 0.464248 -6.06324e-05 0.208163 55.845 5.6246e-07 
443 1 0.392852 0.0714079 0.12569 55.845 -1.7395e-07 
444 1 0.392831 0.107231 0.166384 55.845 5.79596e-08 
445 1 0.428547 0.10702 0.125767 55.845 -9.67497e-08 
604 1 0.392857 0.107143 0 55.845 -4.03601e-08 
450 1 0.392905 7.3174e-05 0.125734 55.845 -6.98508e-08 
451 1 0.392823 0.0356424 0.166341 55.845 -1.03902e-07 
452 1 0.428507 0.0356583 0.125714 55.845 -7.3277e-08 
453 1 0.428558 0.0714157 0.166431 55.845 -1.25622e-07 
454 1 0.464318 0.0714249 0.125675 55.845 2.78908e-08 
455 1 0.464229 0.107179 0.166357 55.845 4.00938e-08 
456 1 0.428623 8.06806e-05 0.166432 55.845 -6.79004e-08 
457 1 0.464284 -4.70732e-05 0.125572 55.845 -8.19916e-09 
458 1 0.464222 0.0356122 0.16637 55.845 -1.46404e-07 
545 1 0.392857 0.0714286 0.0416667 55.845 -5.82191e-09 
546 1 0.392927 0.10709 0.084232 55.845 1.85948e-08 
547 1 0.428571 0.107143 0.0416667 55.845 7.94486e-08 
552 1 0.392857 0 0.0416667 55.845 1.12132e-07 
553 1 0.392856 0.03572 0.0840961 55.845 -2.0577e-08 
554 1 0.428571 0.0357143 0.0416667 55.845 7.476e-08 
555 1 0.428581 0.0713921 0.0842252 55.845 -1.71651e-07 
556 1 0.464286 0.0714286 0.0416667 55.845 1.66136e-07 
557 1 0.464282 0.107173 0.0841753 55.845 -1.96452e-07 
558 1 0.428586 1.99762e-05 0.0841147 55.845 7.18282e-08 
559 1 0.464286 0 0.0416667 55.845 7.61997e-08 
560 1 0.464243 0.0357295 0.0840207 55.845 -5.18999e-08 
255 1 8.45308e-05 0.178558 0.208097 55.845 2.47045e-07 
257 1 0.0356807 0.214279 0.208058 55.845 1.36015e-07 
261 1 0.0357922 0.142937 0.208012 55.845 1.71055e-07 
263 1 0.0714945 0.178478 0.208003 55.845 1.97119e-08 
265 1 0.107156 0.214257 0.208188 55.845 1.20401e-08 
273 1 0.107222 0.142862 0.208129 55.845 5.95249e-08 
357 1 -9.11104e-05 0.178559 0.125544 55.845 -1.91398e-07 
358 1 -6.80748e-05 0.214266 0.166241 55.845 2.05686e-07 
359 1 0.0357108 0.214291 0.125815 55.845 -1.18315e-07 
360 1 0.0357091 0.249987 0.166451 55.845 2.2442e-07 
362 1 3.93931e-05 0.142899 0.166329 55.845 2.0519e-07 
363 1 0.0357489 0.14281 0.125531 55.845 -1.97156e-07 
364 1 0.0357045 0.178602 0.166429 55.845 2.25386e-07 
365 1 0.0714851 0.178483 0.125763 55.845 -1.58036e-07 
366 1 0.07153 0.214215 0.166414 55.845 2.61008e-07 
367 1 0.107172 0.214305 0.125668 55.845 -2.0493e-07 
368 1 0.107123 0.249982 0.16633 55.845 2.53128e-07 
374 1 0.0714218 0.142817 0.166427 55.845 2.98675e-07 
375 1 0.107232 0.142907 0.125704 55.845 -2.2166e-07 
376 1 0.107234 0.178599 0.166428 55.845 3.30967e-07 
459 1 0 0.178571 0.0416667 55.845 -2.38366e-07 
460 1 1.29705e-05 0.214302 0.0841757 55.845 1.6224e-08 
461 1 0.0357143 0.214286 0.0416667 55.845 6.83799e-08 
462 1 0.035808 0.249958 0.0842134 55.845 1.75457e-07 
464 1 -6.6419e-05 0.142807 0.0841722 55.845 -1.09952e-07 
465 1 0.0357143 0.142857 0.0416667 55.845 -7.62631e-08 
466 1 0.0357648 0.178587 0.0842158 55.845 -6.52906e-08 
467 1 0.0714286 0.178571 0.0416667 55.845 1.41258e-07 
468 1 0.0714184 0.214157 0.0842032 55.845 1.34496e-07 
469 1 0.107143 0.214286 0.0416667 55.845 6.97401e-08 
470 1 0.107141 0.250028 0.0841348 55.845 2.95255e-08 
476 1 0.0714885 0.142835 0.08426 55.845 -2.88654e-08 
477 1 0.107143 0.142857 0.0416667 55.845 1.21018e-07 
478 1 0.107101 0.17867 0.0843833 55.845 2.72135e-07 
561 1 0 0.214286 0 55.845 -8.23942e-08 
562 1 0.0357143 0.25 0 55.845 9.54363e-08 
563 1 0 0.142857 0 55.845 -4.15388e-08 
564 1 0.0357143 0.178571 0 55.845 -1.32442e-07 
565 1 0.0714286 0.214286 0 55.845 1.03595e-07 
566 1 0.107143 0.25 0 55.845 -3.2747e-08 
569 1 0.0714286 0.142857 0 55.845 -6.77859e-08 
570 1 0.107143 0.178571 0 55.845 1.02812e-07 
275 1 0.142905 0.178556 0.208062 55.845 -4.53823e-08 
277 1 0.178623 0.214338 0.208181 55.845 1.31223e-07 
287 1 0.178577 0.142805 0.208324 55.845 8.62354e-08 
289 1 0.214314 0.178506 0.208063 55.845 3.05254e-07 
291 1 0.250042 0.214347 0.208093 55.845 2.81151e-07 
301 1 0.249981 0.142845 0.208025 55.845 5.53186e-07 
377 1 0.142914 0.178595 0.125615 55.845 -2.12775e-07 
378 1 0.142893 0.214333 0.166423 55.845 3.35678e-07 
379 1 0.178601 0.214305 0.125826 55.845 -2.88369e-07 
388 1 0.14287 0.142863 0.166469 55.845 3.56825e-07 
389 1 0.178612 0.14291 0.125743 55.845 -2.70538e-07 
390 1 0.178615 0.178663 0.166497 55.845 2.60742e-07 
391 1 0.214242 0.178502 0.125798 55.845 -1.61591e-07 
392 1 0.214365 0.214379 0.166466 55.845 1.42251e-07 
393 1 0.250035 0.214322 0.125626 55.845 3.23421e-08 
402 1 0.214212 0.14282 0.166464 55.845 2.36742e-08 
403 1 0.249946 0.142885 0.125662 55.845 -5.31721e-08 
404 1 0.249978 0.178555 0.166352 55.845 -1.0484e-07 
479 1 0.142857 0.178571 0.0416667 55.845 1.20064e-07 
480 1 0.142984 0.214328 0.0842243 55.845 7.90177e-08 
481 1 0.178571 0.214286 0.0416667 55.845 -1.95423e-07 
490 1 0.142811 0.14289 0.0842504 55.845 2.49156e-07 
491 1 0.178571 0.142857 0.0416667 55.845 1.09872e-07 
492 1 0.178623 0.178615 0.0842199 55.845 1.53197e-07 
493 1 0.214286 0.178571 0.0416667 55.845 -4.7851e-08 
494 1 0.214272 0.214336 0.0842783 55.845 -8.73585e-10 
495 1 0.25 0.214286 0.0416667 55.845 1.20376e-07 
504 1 0.214308 0.142807 0.0842228 55.845 -7.51375e-08 
505 1 0.25 0.142857 0.0416667 55.845 -3.87958e-08 
506 1 0.249962 0.178651 0.0842233 55.845 -2.25631e-07 
571 1 0.142857 0.214286 0 55.845 -3.98148e-08 
576 1 0.142857 0.142857 0 55.845 8.17211e-08 
577 1 0.178571 0.178571 0 55.845 1.42941e-08 
578 1 0.214286 0.214286 0 55.845 -5.66554e-08 
583 1 0.214286 0.142857 0 55.845 -8.39732e-08 
584 1 0.25 0.178571 0 55.845 -1.82956e-07 
303 1 0.285689 0.178567 0.20806 55.845 4.63489e-07 
305 1 0.321466 0.214308 0.208176 55.845 1.34893e-07 
315 1 0.321426 0.142902 0.208163 55.845 4.82049e-07 
317 1 0.357228 0.178574 0.208184 55.845 3.70485e-08 
405 1 0.285696 0.178593 0.125596 55.845 2.72357e-08 
406 1 0.285767 0.214354 0.166374 55.845 -1.60363e-08 
407 1 0.321451 0.214267 0.125651 55.845 -1.05738e-07 
416 1 0.285767 0.142804 0.166225 55.845 -2.21215e-07 
417 1 0.321436 0.142851 0.12579 55.845 4.11554e-09 
418 1 0.321457 0.178625 0.166437 55.845 -4.52134e-08 
419 1 0.357121 0.178657 0.125817 55.845 -1.06895e-07 
420 1 0.357165 0.214328 0.166443 55.845 3.35524e-07 
432 1 0.357129 0.142868 0.16617 55.845 6.86182e-08 
507 1 0.285714 0.178571 0.0416667 55.845 2.40477e-08 
508 1 0.28573 0.214375 0.0841585 55.845 -3.58942e-08 
509 1 0.321429 0.214286 0.0416667 55.845 1.07584e-07 
518 1 0.28572 0.142929 0.0843567 55.845 -3.11508e-07 
519 1 0.321429 0.142857 0.0416667 55.845 8.21335e-08 
520 1 0.32148 0.178589 0.084131 55.845 -1.60649e-07 
521 1 0.357143 0.178571 0.0416667 55.845 1.78418e-07 
522 1 0.357249 0.214245 0.0841381 55.845 -4.11566e-08 
534 1 0.357133 0.142887 0.0840762 55.845 6.3938e-08 
585 1 0.285714 0.214286 0 55.845 -1.01146e-08 
590 1 0.285714 0.142857 0 55.845 -2.24797e-07 
591 1 0.321429 0.178571 0 55.845 -1.29663e-07 
592 1 0.357143 0.214286 0 55.845 -9.03212e-08 
598 1 0.357143 0.142857 0 55.845 5.3856e-08 
319 1 0.392897 0.214291 0.208221 55.845 -2.30188e-07 
321 1 0.428622 0.250034 0.208197 55.845 -3.42705e-07 
331 1 0.392823 0.142914 0.207952 55.845 1.17901e-07 
333 1 0.428494 0.178625 0.208017 55.845 -2.26384e-07 
335 1 0.464267 0.214306 0.208213 55.845 -3.04219e-07 
345 1 0.464158 0.142894 0.207949 55.845 8.98102e-08 
606 1 0.464286 0.178571 0 55.845 -7.9736e-08 
421 1 0.392883 0.214334 0.12569 55.845 -3.18491e-07 
422 1 0.392857 0.249927 0.166456 55.845 5.8322e-07 
423 1 0.428598 0.249999 0.125679 55.845 -2.82694e-07 
433 1 0.392834 0.142823 0.12553 55.845 -9.47296e-08 
434 1 0.392802 0.178625 0.166246 55.845 3.00346e-07 
435 1 0.428572 0.178574 0.12563 55.845 -1.49902e-07 
436 1 0.428597 0.21428 0.166376 55.845 5.11613e-07 
437 1 0.464271 0.214343 0.125672 55.845 -1.05784e-07 
605 1 0.428571 0.142857 0 55.845 2.79029e-08 
446 1 0.428413 0.142883 0.166348 55.845 1.6701e-07 
447 1 0.464241 0.142819 0.125609 55.845 -1.44491e-07 
448 1 0.464275 0.178578 0.166455 55.845 3.38863e-07 
523 1 0.392857 0.214286 0.0416667 55.845 7.98056e-08 
524 1 0.392872 0.249981 0.0841223 55.845 -1.61281e-07 
525 1 0.428571 0.25 0.0416667 55.845 7.96122e-08 
535 1 0.392857 0.142857 0.0416667 55.845 2.06651e-07 
536 1 0.392887 0.178609 0.0842476 55.845 1.5526e-07 
537 1 0.428571 0.178571 0.0416667 55.845 2.20136e-07 
538 1 0.428603 0.214278 0.0842483 55.845 2.53803e-08 
539 1 0.464286 0.214286 0.0416667 55.845 2.81812e-07 
548 1 0.428671 0.142944 0.0842108 55.845 3.25745e-08 
549 1 0.464286 0.142857 0.0416667 55.845 6.05512e-08 
550 1 0.464325 0.178641 0.0841517 55.845 -1.31278e-07 
593 1 0.392857 0.25 0 55.845 -2.18498e-07 
599 1 0.392857 0.178571 0 55.845 6.09496e-08 
600 1 0.428571 0.214286 0 55.845 -4.7919e-08 
3 1 -7.07006e-05 0.107166 0.458662 55.845 3.55525e-07 
7 1 4.38335e-05 0.0358107 0.458726 55.845 1.98089e-07 
8 1 0.0357155 0.071514 0.458819 55.845 2.58358e-07 
9 1 0.0715167 0.10708 0.458871 55.845 1.24487e-07 
13 1 0.0357388 -8.38378e-06 0.458722 55.845 1.26798e-07 
14 1 0.0714111 0.0358254 0.458786 55.845 1.2433e-07 
15 1 0.107154 0.0713544 0.458829 55.845 -1.65182e-09 
20 1 0.10718 3.09836e-05 0.45885 55.845 1.92564e-07 
55 1 -6.04404e-06 0.10717 0.375022 55.845 1.9512e-07 
63 1 -9.97451e-05 0.035701 0.37518 55.845 2.04219e-07 
64 1 4.21617e-05 0.0714035 0.416932 55.845 6.42632e-08 
65 1 0.0357003 0.0715625 0.375152 55.845 2.92725e-07 
66 1 0.035699 0.107175 0.416935 55.845 -3.84133e-08 
67 1 0.0714211 0.107169 0.37518 55.845 4.5449e-07 
74 1 1.11687e-05 9.25872e-05 0.416951 55.845 -4.80341e-09 
75 1 0.035753 6.27392e-05 0.375148 55.845 3.98281e-07 
76 1 0.0356954 0.0357392 0.416752 55.845 -3.03568e-08 
77 1 0.0715271 0.0358041 0.375133 55.845 4.27215e-07 
78 1 0.0714208 0.0714852 0.416797 55.845 -7.82621e-08 
79 1 0.107178 0.0714667 0.375016 55.845 4.72636e-07 
80 1 0.107202 0.107082 0.416898 55.845 -6.58891e-08 
88 1 0.071428 -1.90379e-05 0.416912 55.845 5.92962e-08 
89 1 0.107133 -4.07262e-07 0.375154 55.845 1.53481e-07 
90 1 0.107194 0.0357193 0.416761 55.845 5.08591e-08 
157 1 5.71069e-05 0.107204 0.292552 55.845 -8.63104e-07 
165 1 -5.47957e-05 0.0357961 0.292455 55.845 -9.42473e-07 
166 1 -7.97896e-06 0.0714402 0.333561 55.845 6.75087e-08 
167 1 0.0357782 0.0715011 0.292633 55.845 -8.75895e-07 
168 1 0.0357153 0.107215 0.333628 55.845 7.30325e-08 
169 1 0.0714668 0.107196 0.292489 55.845 -6.24501e-07 
176 1 1.02421e-05 -3.35046e-05 0.333625 55.845 3.70081e-07 
177 1 0.0357418 1.26236e-05 0.292588 55.845 -7.347e-07 
178 1 0.0356947 0.035783 0.333582 55.845 1.12013e-07 
179 1 0.0713573 0.035684 0.292743 55.845 -7.88102e-07 
180 1 0.0714461 0.0715233 0.333544 55.845 9.82298e-08 
181 1 0.107101 0.0714085 0.292671 55.845 -6.983e-07 
182 1 0.107235 0.107097 0.333754 55.845 2.45818e-07 
190 1 0.0714115 6.39813e-06 0.333711 55.845 7.33467e-08 
191 1 0.107142 3.15945e-05 0.292528 55.845 -9.3461e-07 
192 1 0.107104 0.0356768 0.333627 55.845 3.05683e-07 
268 1 -7.29928e-06 0.0715208 0.250146 55.845 9.54399e-08 
270 1 0.0357721 0.107161 0.25016 55.845 1.59126e-07 
278 1 -1.24276e-05 6.2827e-05 0.250377 55.845 3.62054e-07 
280 1 0.0357047 0.0357241 0.250368 55.845 1.9779e-07 
282 1 0.0714116 0.0713902 0.250351 55.845 2.55088e-07 
284 1 0.107262 0.107125 0.250357 55.845 3.34141e-07 
292 1 0.0714861 1.17745e-05 0.250304 55.845 8.01748e-08 
294 1 0.107143 0.0357462 0.250303 55.845 2.77968e-07 
16 1 0.142939 0.107137 0.45873 55.845 1.95431e-08 
21 1 0.142933 0.0357084 0.458821 55.845 7.1556e-09 
22 1 0.178613 0.0713882 0.458742 55.845 -5.04513e-08 
23 1 0.214364 0.107127 0.458702 55.845 -8.94527e-08 
27 1 0.178629 5.75534e-05 0.458843 55.845 6.66213e-08 
28 1 0.21435 0.0357427 0.458568 55.845 -1.52702e-08 
29 1 0.250117 0.071479 0.458639 55.845 1.07921e-08 
81 1 0.142863 0.107111 0.375045 55.845 2.24616e-07 
91 1 0.142817 0.0357921 0.375144 55.845 2.52743e-07 
92 1 0.142906 0.0714776 0.416845 55.845 1.53331e-08 
93 1 0.178685 0.0713562 0.375025 55.845 1.19459e-07 
94 1 0.178562 0.107149 0.416868 55.845 1.89781e-07 
95 1 0.21419 0.107129 0.375213 55.845 1.32635e-07 
102 1 0.142887 1.47998e-05 0.416782 55.845 8.37345e-08 
103 1 0.178683 -6.50785e-06 0.375098 55.845 3.75834e-08 
104 1 0.178631 0.0357029 0.41684 55.845 2.5276e-07 
105 1 0.214336 0.0357379 0.375054 55.845 1.18915e-07 
106 1 0.214328 0.0714043 0.416753 55.845 2.34524e-07 
107 1 0.249983 0.0714912 0.374938 55.845 1.30308e-07 
108 1 0.249976 0.107153 0.416705 55.845 1.56893e-07 
118 1 0.214312 6.32052e-05 0.41681 55.845 1.56865e-07 
120 1 0.250078 0.0357039 0.41671 55.845 4.89786e-08 
183 1 0.142859 0.107212 0.292523 55.845 -9.12612e-07 
193 1 0.142837 0.0356971 0.292594 55.845 -8.38172e-07 
194 1 0.1429 0.0714138 0.333536 55.845 4.06367e-07 
195 1 0.178498 0.0714698 0.292624 55.845 -9.81833e-07 
196 1 0.178603 0.107118 0.333762 55.845 3.04291e-07 
197 1 0.214266 0.107216 0.292646 55.845 -9.26843e-07 
204 1 0.142953 5.29782e-05 0.333725 55.845 2.76061e-07 
205 1 0.178595 4.60694e-05 0.292573 55.845 -9.47319e-07 
206 1 0.178526 0.0356364 0.333593 55.845 4.55104e-07 
207 1 0.214252 0.0356562 0.292696 55.845 -9.59896e-07 
208 1 0.214286 0.071413 0.333472 55.845 2.15761e-07 
209 1 0.250073 0.0715087 0.292558 55.845 -8.38403e-07 
210 1 0.250035 0.107147 0.33364 55.845 1.63471e-07 
220 1 0.214333 1.47103e-05 0.333573 55.845 3.99096e-07 
222 1 0.250016 0.0357729 0.333613 55.845 1.13841e-07 
296 1 0.142819 0.071379 0.250462 55.845 3.60625e-07 
298 1 0.178641 0.107121 0.250455 55.845 1.45174e-07 
306 1 0.142877 2.01924e-05 0.250266 55.845 3.11928e-07 
308 1 0.178574 0.0357816 0.250414 55.845 4.14189e-07 
310 1 0.214274 0.0714172 0.250572 55.845 8.87687e-09 
312 1 0.249984 0.107162 0.250362 55.845 -1.9733e-07 
322 1 0.214347 -2.1708e-05 0.25025 55.845 4.33378e-07 
324 1 0.249973 0.0356999 0.250367 55.845 2.39243e-08 
30 1 0.285731 0.107115 0.458778 55.845 -4.42397e-08 
35 1 0.249986 5.47646e-05 0.458745 55.845 3.72085e-08 
36 1 0.285757 0.0357247 0.458848 55.845 1.45897e-07 
37 1 0.321508 0.0714138 0.458705 55.845 1.89274e-07 
38 1 0.35716 0.107122 0.458776 55.845 1.81503e-07 
42 1 0.321466 3.69742e-05 0.458817 55.845 1.10426e-07 
43 1 0.357143 0.0356994 0.458718 55.845 8.59334e-08 
109 1 0.285754 0.107108 0.375276 55.845 3.3349e-07 
119 1 0.25005 -7.23373e-06 0.375051 55.845 9.55877e-08 
121 1 0.285745 0.0357345 0.375005 55.845 2.34407e-07 
122 1 0.285746 0.0714089 0.416731 55.845 -7.75612e-08 
123 1 0.321513 0.0714658 0.375205 55.845 4.09642e-07 
124 1 0.321382 0.107111 0.417007 55.845 -1.51173e-07 
125 1 0.357211 0.107058 0.375167 55.845 4.20824e-07 
133 1 0.321452 -4.84833e-05 0.375159 55.845 2.67097e-07 
134 1 0.321446 0.0356757 0.416819 55.845 -6.53497e-08 
135 1 0.357132 0.0356684 0.375169 55.845 3.90161e-07 
136 1 0.3572 0.0714398 0.416832 55.845 -1.34285e-07 
211 1 0.285701 0.107133 0.292528 55.845 -5.00854e-07 
221 1 0.250083 -7.86206e-05 0.292516 55.845 -8.55949e-07 
223 1 0.285771 0.0356459 0.292471 55.845 -6.99444e-07 
224 1 0.285782 0.071353 0.333586 55.845 -7.21471e-08 
225 1 0.321399 0.0714317 0.292489 55.845 -5.43434e-07 
226 1 0.321497 0.10714 0.333778 55.845 -1.48166e-07 
227 1 0.35718 0.10713 0.292584 55.845 -6.89944e-07 
235 1 0.321448 -2.43989e-05 0.292581 55.845 -7.57189e-07 
236 1 0.321522 0.0357707 0.333645 55.845 -7.72632e-08 
237 1 0.357141 0.0356714 0.292555 55.845 -5.00513e-07 
238 1 0.357133 0.0714278 0.333531 55.845 -1.36011e-07 
326 1 0.285739 0.0714404 0.250293 55.845 -2.56023e-07 
328 1 0.321377 0.107212 0.250377 55.845 -3.10617e-07 
338 1 0.321506 0.0356529 0.250382 55.845 -1.66313e-07 
340 1 0.357172 0.0714027 0.250364 55.845 -2.04814e-07 
44 1 0.392956 0.0713196 0.458775 55.845 1.95175e-08 
45 1 0.428596 0.107104 0.458946 55.845 4.30197e-08 
47 1 0.392825 -4.04719e-05 0.458786 55.845 -8.42616e-09 
48 1 0.428508 0.0356777 0.458904 55.845 -1.0766e-07 
49 1 0.464278 0.071412 0.458832 55.845 -1.07259e-07 
50 1 0.464216 -7.93495e-05 0.458849 55.845 -3.75128e-07 
137 1 0.39284 0.0713612 0.375155 55.845 4.82079e-07 
138 1 0.392931 0.107105 0.417 55.845 -8.804e-08 
139 1 0.428515 0.107077 0.375228 55.845 3.60513e-07 
144 1 0.39278 1.05369e-05 0.375172 55.845 7.37591e-08 
145 1 0.392827 0.0357188 0.416926 55.845 3.91654e-08 
146 1 0.4286 0.0356327 0.375285 55.845 1.51311e-07 
147 1 0.428598 0.0713963 0.416846 55.845 5.63679e-08 
148 1 0.464274 0.0714656 0.375241 55.845 2.60642e-07 
149 1 0.464239 0.107116 0.416895 55.845 1.10835e-07 
150 1 0.428586 4.90992e-05 0.416872 55.845 3.62645e-07 
151 1 0.46434 3.5219e-05 0.375312 55.845 -6.49905e-08 
152 1 0.464281 0.0357111 0.417093 55.845 2.68894e-07 
239 1 0.392847 0.0713876 0.292547 55.845 -4.05792e-07 
240 1 0.392939 0.107084 0.333573 55.845 -1.19696e-08 
241 1 0.428574 0.107074 0.292499 55.845 -6.22131e-07 
246 1 0.392903 5.08528e-06 0.292634 55.845 -6.78459e-07 
247 1 0.392916 0.0356311 0.333838 55.845 4.2807e-08 
248 1 0.428608 0.0356594 0.292519 55.845 -5.39036e-07 
249 1 0.428574 0.0713126 0.333616 55.845 1.40334e-07 
250 1 0.46429 0.0713765 0.292685 55.845 -6.26594e-07 
251 1 0.464326 0.107134 0.333669 55.845 1.68978e-07 
252 1 0.428609 -5.79712e-05 0.333754 55.845 5.32479e-08 
253 1 0.464262 0.000110815 0.292558 55.845 -7.11009e-07 
254 1 0.464242 0.0357824 0.333871 55.845 7.83918e-08 
342 1 0.392801 0.107169 0.250326 55.845 -1.52511e-07 
349 1 0.392907 0.0356605 0.250258 55.845 -4.92513e-08 
351 1 0.428594 0.0713656 0.250338 55.845 -9.72255e-08 
353 1 0.464324 0.107071 0.250165 55.845 -5.32767e-08 
354 1 0.428488 3.76345e-06 0.250268 55.845 -1.86346e-07 
356 1 0.464205 0.03572 0.250342 55.845 -2.10627e-07 
1 1 -4.39107e-06 0.178574 0.458838 55.845 -1.61835e-08 
2 1 0.0357237 0.214352 0.458985 55.845 1.88837e-08 
4 1 0.0356414 0.142904 0.458598 55.845 1.15271e-07 
5 1 0.0714358 0.178572 0.458795 55.845 1.10933e-07 
6 1 0.10716 0.214272 0.458825 55.845 -6.97894e-08 
10 1 0.107097 0.142856 0.458921 55.845 2.13801e-07 
51 1 -1.40566e-05 0.178595 0.375253 55.845 1.96704e-07 
52 1 2.5934e-05 0.214318 0.416804 55.845 1.96126e-07 
53 1 0.035695 0.21428 0.375107 55.845 2.98313e-08 
54 1 0.0357027 0.249966 0.416856 55.845 4.15244e-07 
56 1 -5.67853e-05 0.142839 0.416786 55.845 3.40811e-08 
57 1 0.0356956 0.14285 0.375208 55.845 2.89605e-07 
58 1 0.0357835 0.178602 0.416888 55.845 1.43724e-07 
59 1 0.0714852 0.178557 0.375124 55.845 9.41444e-08 
60 1 0.0714086 0.214247 0.416936 55.845 4.05735e-07 
61 1 0.107147 0.214316 0.375292 55.845 -1.69178e-07 
62 1 0.107245 0.25002 0.416845 55.845 5.05398e-07 
68 1 0.0714655 0.142878 0.416927 55.845 -4.13503e-08 
69 1 0.107165 0.142847 0.375167 55.845 2.20198e-07 
70 1 0.107185 0.178549 0.41685 55.845 2.6023e-07 
153 1 -9.53261e-06 0.178498 0.292563 55.845 -4.81041e-07 
154 1 -8.69174e-05 0.21429 0.333738 55.845 3.72621e-07 
155 1 0.0356558 0.214296 0.292604 55.845 -9.36395e-07 
156 1 0.0357582 0.250032 0.333642 55.845 2.87365e-07 
158 1 6.08742e-05 0.142889 0.333586 55.845 3.64852e-07 
159 1 0.0357238 0.142838 0.292677 55.845 -5.04025e-07 
160 1 0.0357712 0.178584 0.333622 55.845 3.23623e-07 
161 1 0.0714868 0.178572 0.292502 55.845 -7.89489e-07 
162 1 0.0714302 0.214286 0.333667 55.845 3.1145e-07 
163 1 0.107148 0.214348 0.292554 55.845 -9.42089e-07 
164 1 0.107179 0.250026 0.333733 55.845 6.87472e-07 
170 1 0.0714532 0.142832 0.333593 55.845 1.38589e-07 
171 1 0.107144 0.14284 0.292605 55.845 -8.50069e-07 
172 1 0.107176 0.178678 0.333717 55.845 1.51365e-07 
256 1 -4.6926e-05 0.214197 0.250318 55.845 2.40528e-07 
258 1 0.0357571 0.250002 0.250375 55.845 1.08093e-07 
260 1 -1.77356e-05 0.14288 0.250211 55.845 1.8537e-07 
262 1 0.0357706 0.178535 0.250398 55.845 2.55838e-07 
264 1 0.0714057 0.214187 0.250351 55.845 2.05786e-07 
266 1 0.107147 0.249972 0.250316 55.845 3.89188e-07 
272 1 0.0714452 0.142923 0.250288 55.845 2.36004e-07 
274 1 0.107236 0.178646 0.250296 55.845 1.32508e-07 
11 1 0.142842 0.178513 0.458808 55.845 1.66622e-08 
12 1 0.1786 0.214158 0.458643 55.845 -1.62657e-07 
17 1 0.178621 0.142859 0.458771 55.845 -4.03364e-08 
18 1 0.21428 0.178531 0.458624 55.845 -1.47894e-07 
19 1 0.249946 0.214309 0.458752 55.845 3.4761e-08 
24 1 0.250066 0.14281 0.458693 55.845 -1.48328e-07 
71 1 0.1429 0.1785 0.37512 55.845 -9.69861e-08 
72 1 0.14288 0.214243 0.416903 55.845 3.44626e-07 
73 1 0.178581 0.214175 0.375063 55.845 -5.00367e-08 
82 1 0.142831 0.142777 0.416873 55.845 1.41231e-07 
83 1 0.178613 0.142871 0.375174 55.845 1.60899e-08 
84 1 0.178574 0.178513 0.416726 55.845 3.01583e-07 
85 1 0.214379 0.178509 0.375059 55.845 3.6414e-08 
86 1 0.214212 0.214217 0.416775 55.845 2.34177e-07 
87 1 0.250111 0.214316 0.375264 55.845 8.50622e-08 
96 1 0.214258 0.142932 0.41681 55.845 2.56657e-07 
97 1 0.249998 0.142763 0.375079 55.845 2.26993e-07 
98 1 0.250035 0.178617 0.416978 55.845 1.3314e-07 
173 1 0.142914 0.178626 0.292526 55.845 -1.08592e-06 
174 1 0.142848 0.214295 0.333841 55.845 5.70792e-07 
175 1 0.178573 0.21431 0.292629 55.845 -7.79037e-07 
184 1 0.142958 0.142884 0.33367 55.845 2.11773e-07 
185 1 0.178544 0.14279 0.292585 55.845 -1.03047e-06 
186 1 0.178701 0.178485 0.333629 55.845 3.80119e-07 
187 1 0.214375 0.178619 0.292542 55.845 -7.23932e-07 
188 1 0.214321 0.214271 0.33358 55.845 2.59569e-07 
189 1 0.250045 0.214307 0.292644 55.845 -6.69202e-07 
198 1 0.214259 0.142863 0.333614 55.845 3.21647e-07 
199 1 0.250072 0.142919 0.292597 55.845 -5.03205e-07 
200 1 0.250078 0.178574 0.333645 55.845 1.65629e-07 
276 1 0.142942 0.214271 0.250345 55.845 3.72842e-07 
286 1 0.142937 0.142858 0.250483 55.845 9.05356e-08 
288 1 0.178643 0.178604 0.250416 55.845 9.84759e-08 
290 1 0.214243 0.214253 0.250273 55.845 7.30827e-08 
300 1 0.214297 0.142889 0.250278 55.845 5.05599e-08 
302 1 0.250071 0.178554 0.25039 55.845 5.7525e-09 
25 1 0.285668 0.178647 0.458784 55.845 2.72123e-08 
26 1 0.321428 0.2143 0.458647 55.845 1.6461e-08 
31 1 0.321473 0.142813 0.458634 55.845 5.90698e-08 
32 1 0.35714 0.17856 0.458707 55.845 8.46603e-08 
99 1 0.285795 0.17845 0.3751 55.845 2.85506e-07 
100 1 0.28573 0.214299 0.416797 55.845 8.67215e-08 
101 1 0.321436 0.214188 0.375129 55.845 1.20065e-07 
110 1 0.285739 0.142875 0.416895 55.845 4.40865e-10 
111 1 0.321393 0.142829 0.375074 55.845 3.55401e-07 
112 1 0.321402 0.178529 0.416822 55.845 3.37275e-08 
113 1 0.357175 0.178534 0.375218 55.845 1.12258e-07 
114 1 0.357126 0.214245 0.416951 55.845 2.05686e-07 
126 1 0.357092 0.142832 0.416985 55.845 -3.08219e-08 
201 1 0.28577 0.17855 0.292623 55.845 -4.43132e-07 
202 1 0.285787 0.214312 0.333639 55.845 2.60426e-08 
203 1 0.321442 0.214287 0.292567 55.845 -7.56563e-07 
212 1 0.285694 0.142857 0.333624 55.845 1.21181e-07 
213 1 0.321398 0.142872 0.292678 55.845 -5.34653e-07 
214 1 0.321526 0.178575 0.33372 55.845 8.76705e-08 
215 1 0.357182 0.178496 0.292746 55.845 -8.92348e-07 
216 1 0.357098 0.214337 0.333742 55.845 4.00022e-07 