ITEM: TIMESTEP
2500
ITEM: NUMBER OF ATOMS
5880
ITEM: BOX BOUNDS pp pp ff
-27.9739 27.9739
-27.9739 27.9739
0 34.092
ITEM: ATOMS id type xs ys zs mass q 
259 1 -2.05362e-05 0.107119 0.208887 55.845 2.80744e-08 
267 1 5.8744e-05 0.0356827 0.208862 55.845 -1.91091e-07 
269 1 0.035715 0.0713668 0.20895 55.845 -8.19606e-08 
271 1 0.0714119 0.107164 0.208924 55.845 1.56191e-08 
279 1 0.0357103 3.22061e-05 0.20894 55.845 -1.72413e-07 
281 1 0.0714318 0.035645 0.208846 55.845 -3.01372e-08 
283 1 0.107113 0.0714413 0.208865 55.845 2.14912e-08 
293 1 0.107148 4.0296e-05 0.208858 55.845 8.29343e-08 
361 1 8.24768e-06 0.107169 0.124752 55.845 1.96081e-07 
369 1 -7.33178e-05 0.0357225 0.124682 55.845 1.38982e-07 
370 1 2.19226e-05 0.0713579 0.167043 55.845 4.0086e-08 
371 1 0.0357354 0.0715296 0.124828 55.845 1.45622e-07 
372 1 0.0356783 0.107128 0.167129 55.845 -3.46566e-08 
373 1 0.0714455 0.107159 0.124631 55.845 6.77409e-08 
380 1 5.91632e-05 2.26293e-06 0.167034 55.845 -1.33256e-07 
381 1 0.0357046 2.96809e-05 0.124767 55.845 5.71171e-08 
382 1 0.0357218 0.0357105 0.167025 55.845 -1.25556e-07 
383 1 0.0714538 0.0357805 0.124703 55.845 1.64062e-07 
384 1 0.071418 0.0714564 0.167102 55.845 5.47974e-08 
385 1 0.107159 0.0714359 0.124609 55.845 1.54957e-07 
386 1 0.10709 0.107084 0.167 55.845 5.42704e-08 
394 1 0.0714199 4.81856e-05 0.167003 55.845 -9.89615e-08 
395 1 0.107097 -3.35058e-05 0.124725 55.845 2.21359e-07 
396 1 0.107118 0.0357676 0.166944 55.845 9.43106e-08 
463 1 0 0.107143 0.0416667 55.845 8.70258e-08 
471 1 0 0.0357143 0.0416667 55.845 1.61006e-07 
472 1 -1.04822e-05 0.071507 0.0832551 55.845 4.71732e-08 
473 1 0.0357143 0.0714286 0.0416667 55.845 5.0133e-08 
474 1 0.035677 0.107186 0.0832265 55.845 -4.0848e-08 
475 1 0.0714286 0.107143 0.0416667 55.845 -1.43856e-07 
482 1 3.0568e-05 -2.98958e-05 0.0833472 55.845 1.72339e-09 
483 1 0.0357143 0 0.0416667 55.845 4.97124e-08 
484 1 0.0357048 0.0357605 0.0833532 55.845 -2.59434e-08 
485 1 0.0714286 0.0357143 0.0416667 55.845 9.70545e-09 
486 1 0.0714516 0.0714658 0.0831403 55.845 -9.8438e-08 
487 1 0.107143 0.0714286 0.0416667 55.845 -3.59204e-08 
488 1 0.107159 0.107155 0.0831469 55.845 -4.9452e-08 
496 1 0.0714429 2.62349e-06 0.08332 55.845 -1.41437e-07 
497 1 0.107143 0 0.0416667 55.845 6.57208e-08 
498 1 0.107115 0.0356847 0.0833389 55.845 -7.49325e-09 
567 1 0 0.0714286 0 55.845 -3.00104e-08 
568 1 0.0357143 0.107143 0 55.845 -2.03549e-07 
572 1 0 0 0 55.845 6.55796e-09 
573 1 0.0357143 0.0357143 0 55.845 -1.3723e-07 
574 1 0.0714286 0.0714286 0 55.845 -2.46213e-07 
575 1 0.107143 0.107143 0 55.845 -2.55377e-07 
579 1 0.0714286 0 0 55.845 -1.79799e-07 
580 1 0.107143 0.0357143 0 55.845 -2.14222e-07 
285 1 0.142818 0.107105 0.208785 55.845 1.30104e-08 
295 1 0.142894 0.0356993 0.208752 55.845 4.48561e-08 
297 1 0.17854 0.07146 0.208816 55.845 -7.87855e-08 
299 1 0.214308 0.107088 0.208777 55.845 -6.65235e-08 
307 1 0.178609 3.13032e-05 0.208857 55.845 -1.68204e-07 
309 1 0.214285 0.0356619 0.208778 55.845 -2.41364e-07 
311 1 0.249976 0.0714234 0.208804 55.845 -1.33817e-07 
387 1 0.142857 0.107102 0.124637 55.845 1.23122e-07 
397 1 0.142866 0.0356536 0.124721 55.845 2.49587e-07 
398 1 0.142776 0.0714069 0.166931 55.845 1.71484e-07 
399 1 0.178591 0.0713432 0.124727 55.845 1.90022e-07 
400 1 0.178501 0.107168 0.166867 55.845 6.38057e-08 
401 1 0.21433 0.107122 0.124642 55.845 1.09505e-07 
408 1 0.142827 8.30618e-08 0.166987 55.845 7.36911e-09 
409 1 0.178601 2.8606e-05 0.124619 55.845 1.2198e-07 
410 1 0.178613 0.0357163 0.166942 55.845 -2.19445e-10 
411 1 0.214272 0.035671 0.124601 55.845 1.21069e-07 
412 1 0.214289 0.0713992 0.166943 55.845 -3.12267e-08 
413 1 0.249987 0.0713789 0.124651 55.845 8.17257e-08 
414 1 0.250028 0.107134 0.166914 55.845 -1.39395e-08 
424 1 0.214292 -4.15683e-05 0.166871 55.845 -1.65943e-07 
426 1 0.249895 0.03568 0.166954 55.845 -8.56873e-08 
489 1 0.142857 0.107143 0.0416667 55.845 -1.53955e-09 
499 1 0.142857 0.0357143 0.0416667 55.845 9.92502e-08 
500 1 0.142938 0.071375 0.0831442 55.845 -4.8909e-09 
501 1 0.178571 0.0714286 0.0416667 55.845 9.33183e-08 
502 1 0.178609 0.107107 0.0833128 55.845 2.40594e-08 
503 1 0.214286 0.107143 0.0416667 55.845 1.18505e-07 
510 1 0.142889 2.13793e-05 0.0832036 55.845 -9.93668e-10 
511 1 0.178571 0 0.0416667 55.845 1.10117e-07 
512 1 0.178579 0.035719 0.0831367 55.845 -2.3266e-09 
513 1 0.214286 0.0357143 0.0416667 55.845 1.30295e-07 
514 1 0.214314 0.0713343 0.0832254 55.845 -5.73563e-08 
515 1 0.25 0.0714286 0.0416667 55.845 9.27257e-08 
516 1 0.25 0.107108 0.0832075 55.845 -8.06589e-08 
526 1 0.214284 3.7924e-05 0.0832864 55.845 -3.03612e-08 
528 1 0.250052 0.0356907 0.0832104 55.845 -2.42414e-08 
581 1 0.142857 0.0714286 0 55.845 -1.98288e-07 
582 1 0.178571 0.107143 0 55.845 -7.09687e-08 
586 1 0.142857 0 0 55.845 -1.29936e-07 
587 1 0.178571 0.0357143 0 55.845 -1.07148e-07 
588 1 0.214286 0.0714286 0 55.845 -1.05484e-07 
589 1 0.25 0.107143 0 55.845 -1.02474e-07 
594 1 0.214286 0 0 55.845 -4.03264e-08 
595 1 0.25 0.0357143 0 55.845 -7.88965e-08 
313 1 0.285756 0.107177 0.208865 55.845 2.49769e-08 
323 1 0.250057 -1.61077e-05 0.208717 55.845 -2.24405e-07 
325 1 0.285697 0.0356836 0.208813 55.845 -9.26825e-08 
327 1 0.321463 0.0714687 0.208861 55.845 -3.95807e-08 
329 1 0.357193 0.107085 0.208924 55.845 1.49775e-08 
337 1 0.321456 8.26732e-06 0.208831 55.845 -1.79394e-08 
339 1 0.357154 0.0357029 0.208708 55.845 -1.04167e-07 
415 1 0.285764 0.107117 0.124621 55.845 1.22948e-07 
425 1 0.250039 -1.01575e-05 0.124618 55.845 1.2481e-07 
427 1 0.285681 0.0357644 0.124715 55.845 1.29891e-07 
428 1 0.285701 0.0714626 0.167117 55.845 4.28726e-08 
429 1 0.321409 0.0714957 0.124761 55.845 5.92761e-08 
430 1 0.321413 0.107129 0.166949 55.845 1.42162e-07 
431 1 0.35714 0.107147 0.124632 55.845 1.60312e-07 
439 1 0.321533 1.68197e-05 0.124801 55.845 1.7693e-07 
440 1 0.321415 0.0357521 0.16696 55.845 1.08136e-07 
441 1 0.35714 0.0357055 0.124682 55.845 2.9347e-08 
442 1 0.357183 0.0714001 0.166949 55.845 1.30191e-07 
517 1 0.285714 0.107143 0.0416667 55.845 8.4356e-09 
527 1 0.25 0 0.0416667 55.845 1.51118e-07 
529 1 0.285714 0.0357143 0.0416667 55.845 4.8608e-08 
530 1 0.285701 0.0714301 0.0832675 55.845 -1.0229e-07 
531 1 0.321429 0.0714286 0.0416667 55.845 -8.1411e-08 
532 1 0.321426 0.107124 0.0831246 55.845 -5.09654e-08 
533 1 0.357143 0.107143 0.0416667 55.845 -4.05881e-08 
603 1 0.357143 0.0714286 0 55.845 -2.31486e-07 
541 1 0.321429 0 0.0416667 55.845 2.98892e-08 
542 1 0.321402 0.0357528 0.0833237 55.845 1.09884e-08 
543 1 0.357143 0.0357143 0.0416667 55.845 -1.11063e-07 
544 1 0.357145 0.0714238 0.0831898 55.845 -6.89058e-08 
602 1 0.321429 0.0357143 0 55.845 -2.04299e-07 
596 1 0.285714 0.0714286 0 55.845 -1.86868e-07 
597 1 0.321429 0.107143 0 55.845 -2.13213e-07 
612 1 0.464286 0.0357143 0 55.845 1.17641e-08 
611 1 0.428571 0 0 55.845 -8.31029e-08 
610 1 0.464286 0.107143 0 55.845 -2.26902e-08 
609 1 0.428571 0.0714286 0 55.845 -8.12389e-08 
608 1 0.392857 0.0357143 0 55.845 -1.97044e-07 
341 1 0.392836 0.0713666 0.208841 55.845 -9.59353e-08 
343 1 0.428617 0.107105 0.208783 55.845 -4.83784e-08 
348 1 0.392953 -4.54921e-05 0.208801 55.845 -2.32373e-07 
350 1 0.428551 0.035678 0.20886 55.845 -1.68716e-07 
352 1 0.464226 0.0713819 0.209019 55.845 -1.73776e-07 
355 1 0.464302 -3.36011e-05 0.20885 55.845 -1.65962e-07 
443 1 0.392938 0.0713823 0.12475 55.845 1.03097e-07 
444 1 0.392818 0.107131 0.166969 55.845 1.69572e-07 
445 1 0.428584 0.107148 0.124662 55.845 1.05159e-07 
604 1 0.392857 0.107143 0 55.845 -1.40495e-07 
450 1 0.39287 3.96919e-06 0.124778 55.845 -2.71317e-08 
451 1 0.392866 0.0356518 0.166973 55.845 1.97963e-08 
452 1 0.428566 0.035759 0.12467 55.845 8.59566e-08 
453 1 0.428589 0.0713981 0.167055 55.845 1.46502e-07 
454 1 0.464345 0.071352 0.124699 55.845 6.7091e-08 
455 1 0.464301 0.10708 0.167115 55.845 1.19892e-07 
456 1 0.428599 -4.63124e-05 0.166842 55.845 4.76601e-08 
457 1 0.464287 8.62501e-05 0.124681 55.845 1.62304e-07 
458 1 0.464312 0.0356728 0.167109 55.845 1.21142e-07 
545 1 0.392857 0.0714286 0.0416667 55.845 8.09546e-09 
546 1 0.392884 0.107175 0.0832733 55.845 -3.9901e-08 
547 1 0.428571 0.107143 0.0416667 55.845 5.11346e-08 
552 1 0.392857 0 0.0416667 55.845 -9.52672e-08 
553 1 0.392911 0.0356751 0.0832624 55.845 -2.81922e-08 
554 1 0.428571 0.0357143 0.0416667 55.845 4.93987e-08 
555 1 0.428601 0.0714564 0.0832209 55.845 1.05294e-07 
556 1 0.464286 0.0714286 0.0416667 55.845 9.74921e-08 
557 1 0.464339 0.107142 0.0833697 55.845 1.4107e-07 
558 1 0.428527 -4.56055e-05 0.0833035 55.845 9.01477e-08 
559 1 0.464286 0 0.0416667 55.845 1.70491e-07 
560 1 0.464296 0.0357046 0.083313 55.845 2.1697e-07 
255 1 9.37084e-05 0.178584 0.208805 55.845 -2.37583e-07 
257 1 0.0357748 0.214259 0.208789 55.845 -1.46686e-07 
261 1 0.035684 0.14281 0.208825 55.845 3.50606e-09 
263 1 0.0714578 0.178568 0.208949 55.845 3.96483e-09 
265 1 0.107142 0.214185 0.208811 55.845 -1.99094e-08 
273 1 0.107114 0.142885 0.20888 55.845 3.18885e-08 
357 1 4.68691e-05 0.17852 0.124597 55.845 5.09034e-08 
358 1 7.36843e-05 0.214258 0.166922 55.845 -1.02423e-07 
359 1 0.0357552 0.214201 0.124796 55.845 1.24234e-07 
360 1 0.0357618 0.249989 0.166823 55.845 7.87296e-08 
362 1 8.47176e-07 0.142829 0.166917 55.845 -9.86476e-08 
363 1 0.0357613 0.142818 0.124713 55.845 9.15577e-08 
364 1 0.0357643 0.178445 0.166986 55.845 -6.88871e-08 
365 1 0.0714609 0.178551 0.124781 55.845 1.12454e-07 
366 1 0.0714205 0.214275 0.166964 55.845 1.99933e-07 
367 1 0.107154 0.214271 0.124691 55.845 1.90687e-07 
368 1 0.107154 0.249928 0.166869 55.845 1.14208e-07 
374 1 0.0714467 0.142845 0.167051 55.845 -2.54741e-09 
375 1 0.107135 0.142818 0.124615 55.845 2.89738e-08 
376 1 0.107097 0.178544 0.166979 55.845 1.34513e-07 
459 1 0 0.178571 0.0416667 55.845 5.24014e-08 
460 1 2.03185e-05 0.214275 0.0832712 55.845 3.08935e-08 
461 1 0.0357143 0.214286 0.0416667 55.845 1.13443e-07 
462 1 0.0357171 0.249894 0.0831987 55.845 7.86382e-08 
464 1 6.49002e-06 0.142843 0.083213 55.845 -1.03203e-08 
465 1 0.0357143 0.142857 0.0416667 55.845 -5.98687e-08 
466 1 0.0357039 0.178529 0.0832609 55.845 -1.06859e-08 
467 1 0.0714286 0.178571 0.0416667 55.845 -1.98695e-09 
468 1 0.0714142 0.214299 0.0831706 55.845 1.44258e-07 
469 1 0.107143 0.214286 0.0416667 55.845 1.56464e-07 
470 1 0.107199 0.249913 0.0831417 55.845 2.99088e-08 
476 1 0.0713776 0.14282 0.0833056 55.845 -6.00921e-08 
477 1 0.107143 0.142857 0.0416667 55.845 -9.7342e-08 
478 1 0.10709 0.178599 0.0832044 55.845 8.97945e-08 
561 1 0 0.214286 0 55.845 -3.43736e-08 
562 1 0.0357143 0.25 0 55.845 -3.72676e-08 
563 1 0 0.142857 0 55.845 -9.56413e-08 
564 1 0.0357143 0.178571 0 55.845 -1.35938e-07 
565 1 0.0714286 0.214286 0 55.845 -6.89007e-08 
566 1 0.107143 0.25 0 55.845 -8.77827e-08 
569 1 0.0714286 0.142857 0 55.845 -2.34955e-07 
570 1 0.107143 0.178571 0 55.845 -8.40444e-08 
275 1 0.142838 0.178534 0.208897 55.845 -1.88938e-07 
277 1 0.178574 0.21421 0.208792 55.845 -3.42548e-07 
287 1 0.17855 0.142891 0.208777 55.845 -1.2503e-07 
289 1 0.21433 0.17856 0.208791 55.845 -3.04999e-07 
291 1 0.250065 0.214292 0.208791 55.845 -3.61522e-07 
301 1 0.250079 0.142802 0.208793 55.845 -9.11413e-08 
377 1 0.142808 0.178597 0.124707 55.845 4.43402e-08 
378 1 0.142877 0.214245 0.167072 55.845 9.65542e-08 
379 1 0.178507 0.214197 0.124767 55.845 -2.31727e-08 
388 1 0.142842 0.142853 0.166963 55.845 6.89772e-08 
389 1 0.178577 0.142946 0.124757 55.845 9.01686e-08 
390 1 0.178572 0.178553 0.167039 55.845 -3.4914e-09 
391 1 0.214291 0.178539 0.124603 55.845 -8.98704e-08 
392 1 0.214424 0.214206 0.167029 55.845 -4.39276e-08 
393 1 0.250035 0.214184 0.124738 55.845 -8.69086e-08 
402 1 0.214258 0.142899 0.166971 55.845 -3.15697e-08 
403 1 0.250043 0.142854 0.124626 55.845 8.20467e-08 
404 1 0.25001 0.178496 0.167048 55.845 -5.14001e-08 
479 1 0.142857 0.178571 0.0416667 55.845 8.53289e-08 
480 1 0.142894 0.214302 0.0832786 55.845 1.08899e-07 
481 1 0.178571 0.214286 0.0416667 55.845 1.31605e-07 
490 1 0.142883 0.142802 0.0832388 55.845 5.20993e-08 
491 1 0.178571 0.142857 0.0416667 55.845 6.18156e-08 
492 1 0.178488 0.178581 0.0832044 55.845 3.40381e-08 
493 1 0.214286 0.178571 0.0416667 55.845 1.3082e-07 
494 1 0.21429 0.21428 0.0832442 55.845 9.47156e-08 
495 1 0.25 0.214286 0.0416667 55.845 1.87473e-07 
504 1 0.214283 0.142832 0.0831517 55.845 1.17393e-08 
505 1 0.25 0.142857 0.0416667 55.845 1.03907e-07 
506 1 0.250033 0.178622 0.0832319 55.845 6.90472e-08 
571 1 0.142857 0.214286 0 55.845 3.25695e-09 
576 1 0.142857 0.142857 0 55.845 -1.10775e-07 
577 1 0.178571 0.178571 0 55.845 3.75172e-08 
578 1 0.214286 0.214286 0 55.845 4.49264e-08 
583 1 0.214286 0.142857 0 55.845 -2.05789e-08 
584 1 0.25 0.178571 0 55.845 4.66536e-08 
303 1 0.285766 0.178491 0.208875 55.845 -2.3441e-07 
305 1 0.321388 0.214209 0.208789 55.845 -2.31133e-07 
315 1 0.321425 0.142797 0.20879 55.845 1.07121e-08 
317 1 0.357121 0.178571 0.208781 55.845 -1.67598e-07 
405 1 0.285632 0.178509 0.124657 55.845 -3.14939e-08 
406 1 0.285842 0.214156 0.166824 55.845 1.90264e-09 
407 1 0.321449 0.214283 0.124584 55.845 -5.60805e-08 
416 1 0.285722 0.1428 0.166965 55.845 3.29377e-08 
417 1 0.321366 0.142791 0.124562 55.845 1.055e-07 
418 1 0.321442 0.178568 0.166962 55.845 -5.95574e-09 
419 1 0.357129 0.178594 0.124629 55.845 3.77869e-08 
420 1 0.3572 0.21426 0.166868 55.845 -2.14667e-08 
432 1 0.357119 0.142782 0.166957 55.845 7.50168e-08 
507 1 0.285714 0.178571 0.0416667 55.845 1.12343e-07 
508 1 0.285705 0.21429 0.0832452 55.845 1.37709e-07 
509 1 0.321429 0.214286 0.0416667 55.845 3.37534e-08 
518 1 0.285705 0.142852 0.0830958 55.845 -1.94443e-08 
519 1 0.321429 0.142857 0.0416667 55.845 9.51424e-09 
520 1 0.321427 0.178621 0.083307 55.845 1.68364e-08 
521 1 0.357143 0.178571 0.0416667 55.845 3.30791e-08 
522 1 0.357226 0.214308 0.0832913 55.845 -1.12717e-07 
534 1 0.3572 0.142858 0.0832453 55.845 -5.19021e-08 
585 1 0.285714 0.214286 0 55.845 3.7579e-08 
590 1 0.285714 0.142857 0 55.845 -4.63725e-08 
591 1 0.321429 0.178571 0 55.845 -9.68701e-08 
592 1 0.357143 0.214286 0 55.845 -1.49771e-07 
598 1 0.357143 0.142857 0 55.845 -1.76155e-07 
319 1 0.392802 0.214351 0.208733 55.845 -2.43979e-07 
321 1 0.428547 0.250033 0.208744 55.845 -2.20346e-07 
331 1 0.392833 0.14285 0.208868 55.845 -7.47479e-08 
333 1 0.428546 0.178608 0.208894 55.845 -2.76581e-07 
335 1 0.464337 0.214344 0.208858 55.845 -3.53614e-07 
345 1 0.464281 0.142792 0.208855 55.845 -1.57069e-07 
606 1 0.464286 0.178571 0 55.845 -1.98762e-08 
421 1 0.392877 0.2143 0.124726 55.845 9.15652e-08 
422 1 0.392828 0.250026 0.166895 55.845 2.20199e-08 
423 1 0.428599 0.250018 0.124755 55.845 2.27874e-07 
433 1 0.392945 0.142886 0.124598 55.845 1.38055e-07 
434 1 0.392801 0.178552 0.166944 55.845 -8.00588e-08 
435 1 0.428579 0.17862 0.124693 55.845 7.22019e-08 
436 1 0.428549 0.214341 0.166943 55.845 -1.10624e-07 
437 1 0.464262 0.21429 0.124756 55.845 1.06899e-07 
605 1 0.428571 0.142857 0 55.845 -9.42436e-08 
446 1 0.428577 0.142884 0.167002 55.845 2.01266e-08 
447 1 0.464272 0.142818 0.124722 55.845 3.60457e-08 
448 1 0.464272 0.17865 0.166955 55.845 -9.59735e-08 
523 1 0.392857 0.214286 0.0416667 55.845 1.27357e-07 
524 1 0.392868 0.249983 0.0832639 55.845 -6.2008e-08 
525 1 0.428571 0.25 0.0416667 55.845 2.24508e-07 
535 1 0.392857 0.142857 0.0416667 55.845 5.10088e-08 
536 1 0.392866 0.178627 0.0832521 55.845 -9.47413e-08 
537 1 0.428571 0.178571 0.0416667 55.845 1.50096e-07 
538 1 0.428562 0.214299 0.0833383 55.845 4.54303e-10 
539 1 0.464286 0.214286 0.0416667 55.845 2.10394e-07 
548 1 0.428632 0.142839 0.0831928 55.845 -1.20995e-09 
549 1 0.464286 0.142857 0.0416667 55.845 6.18349e-08 
550 1 0.464294 0.178592 0.0832688 55.845 4.87775e-09 
593 1 0.392857 0.25 0 55.845 -1.58009e-07 
599 1 0.392857 0.178571 0 55.845 -1.37432e-07 
600 1 0.428571 0.214286 0 55.845 -5.2582e-08 
3 1 -5.03067e-05 0.107189 0.460046 55.845 5.89263e-09 
7 1 -6.87963e-06 0.0357849 0.459991 55.845 6.07435e-08 
8 1 0.0357038 0.0714226 0.460045 55.845 -8.86151e-08 
9 1 0.0714169 0.107178 0.459972 55.845 7.03923e-08 
13 1 0.035686 -6.41766e-05 0.46008 55.845 2.00262e-07 
14 1 0.0713743 0.0357129 0.459962 55.845 5.26766e-08 
15 1 0.107259 0.0714676 0.459966 55.845 -2.86201e-08 
20 1 0.107114 -2.85723e-06 0.460017 55.845 2.48389e-07 
55 1 -2.30986e-05 0.107134 0.376079 55.845 1.32576e-07 
63 1 4.89118e-05 0.0357396 0.376053 55.845 1.2926e-08 
64 1 2.1525e-05 0.0714553 0.418405 55.845 5.05572e-09 
65 1 0.0356789 0.0714574 0.376208 55.845 -3.87686e-08 
66 1 0.0356961 0.107122 0.418295 55.845 -1.51415e-08 
67 1 0.0714642 0.107144 0.376045 55.845 1.50011e-08 
74 1 -9.89e-06 4.74098e-05 0.418567 55.845 7.49023e-09 
75 1 0.0357483 -4.77314e-05 0.376257 55.845 7.07834e-08 
76 1 0.0357901 0.035659 0.418388 55.845 -7.99124e-08 
77 1 0.0713874 0.0357176 0.376136 55.845 1.36051e-08 
78 1 0.0714885 0.0715267 0.418338 55.845 -2.50191e-07 
79 1 0.107151 0.0713814 0.376148 55.845 -6.87945e-08 
80 1 0.107141 0.107186 0.41844 55.845 -1.1295e-07 
88 1 0.0713646 -5.39766e-06 0.418474 55.845 8.75209e-08 
89 1 0.107096 -2.36326e-06 0.376204 55.845 1.52615e-07 
90 1 0.107126 0.0356865 0.418363 55.845 -6.38834e-08 
157 1 -4.79163e-05 0.107165 0.29126 55.845 3.71086e-09 
165 1 -4.07643e-05 0.035709 0.291275 55.845 -2.40738e-07 
166 1 6.34022e-05 0.0714351 0.333398 55.845 -5.4699e-08 
167 1 0.0357473 0.0714167 0.291258 55.845 -1.58499e-07 
168 1 0.03573 0.107227 0.333347 55.845 -1.09913e-07 
169 1 0.0714096 0.107174 0.291306 55.845 -3.24575e-08 
176 1 1.41204e-05 -5.54506e-06 0.33351 55.845 -2.28784e-08 
177 1 0.03575 -1.07611e-05 0.291317 55.845 -1.8817e-07 
178 1 0.0358164 0.0357405 0.333522 55.845 -2.00371e-07 
179 1 0.0714865 0.0356864 0.291203 55.845 -1.35421e-07 
180 1 0.0714866 0.0714403 0.333415 55.845 -2.87411e-07 
181 1 0.107175 0.0713783 0.291185 55.845 -1.03539e-07 
182 1 0.107164 0.107149 0.333422 55.845 -1.75896e-07 
190 1 0.0714407 1.14046e-05 0.333569 55.845 6.75275e-09 
191 1 0.107173 -6.19521e-05 0.291285 55.845 4.42682e-08 
192 1 0.107123 0.0356833 0.33349 55.845 -5.32595e-08 
268 1 -3.0387e-06 0.0713832 0.250266 55.845 9.62896e-08 
270 1 0.0356481 0.1071 0.250244 55.845 5.79254e-08 
278 1 -3.33768e-05 2.63352e-05 0.25022 55.845 -2.83496e-08 
280 1 0.0357407 0.0356665 0.250318 55.845 2.65864e-08 
282 1 0.0714528 0.0713782 0.250354 55.845 5.50657e-08 
284 1 0.107172 0.107134 0.250355 55.845 1.28338e-07 
292 1 0.0713811 -2.97066e-05 0.250313 55.845 7.30721e-08 
294 1 0.107176 0.0357171 0.250248 55.845 2.42375e-07 
16 1 0.142945 0.107101 0.459968 55.845 -2.50773e-08 
21 1 0.142851 0.0356778 0.460022 55.845 -1.22623e-09 
22 1 0.178607 0.0714196 0.459975 55.845 -4.79245e-08 
23 1 0.214349 0.107155 0.45999 55.845 -1.11699e-08 
27 1 0.178634 -5.75165e-05 0.460108 55.845 6.07577e-08 
28 1 0.214373 0.0356794 0.460092 55.845 2.74464e-08 
29 1 0.250019 0.0714328 0.460037 55.845 8.7671e-08 
81 1 0.142843 0.107072 0.376128 55.845 -1.03503e-07 
91 1 0.142898 0.0356608 0.376161 55.845 1.84181e-08 
92 1 0.142894 0.0713624 0.418337 55.845 -9.8404e-08 
93 1 0.178598 0.0713901 0.376024 55.845 -7.55615e-08 
94 1 0.178618 0.107121 0.418345 55.845 4.46444e-08 
95 1 0.214308 0.107158 0.376015 55.845 4.84942e-08 
102 1 0.142821 -5.15902e-10 0.418401 55.845 1.65374e-07 
103 1 0.178596 3.53875e-05 0.376091 55.845 2.10393e-08 
104 1 0.178591 0.0356706 0.418375 55.845 9.82408e-08 
105 1 0.214267 0.0356727 0.376186 55.845 6.6846e-09 
106 1 0.214245 0.0714466 0.418344 55.845 1.41751e-07 
107 1 0.250072 0.0713903 0.376235 55.845 5.01416e-08 
108 1 0.250019 0.107061 0.418325 55.845 8.91829e-08 
118 1 0.214324 -1.60651e-05 0.418365 55.845 1.8883e-07 
120 1 0.250038 0.0357122 0.418381 55.845 2.46877e-07 
183 1 0.14285 0.107129 0.2913 55.845 -1.16424e-07 
193 1 0.142892 0.0357103 0.291156 55.845 -9.49081e-08 
194 1 0.142931 0.071398 0.333371 55.845 -1.09112e-07 
195 1 0.178569 0.0714134 0.291274 55.845 -1.42791e-07 
196 1 0.178574 0.107118 0.333344 55.845 -2.53507e-08 
197 1 0.214343 0.107062 0.29121 55.845 -8.34266e-08 
204 1 0.142869 2.87721e-05 0.333439 55.845 9.18351e-08 
205 1 0.178536 -3.79259e-05 0.291246 55.845 -1.61614e-07 
206 1 0.178635 0.0357298 0.333405 55.845 -1.1389e-10 
207 1 0.214228 0.0356835 0.291057 55.845 -2.48049e-07 
208 1 0.214346 0.0713501 0.333472 55.845 8.70454e-08 
209 1 0.249992 0.0713865 0.291172 55.845 -1.24334e-07 
210 1 0.250032 0.10704 0.333403 55.845 9.43859e-08 
220 1 0.214357 2.90715e-05 0.33339 55.845 2.38011e-08 
222 1 0.24996 0.0356824 0.333372 55.845 7.66047e-08 
296 1 0.142796 0.0714267 0.250207 55.845 1.95944e-07 
298 1 0.178585 0.107202 0.250227 55.845 2.32148e-07 
306 1 0.14291 3.71136e-05 0.250188 55.845 1.37584e-07 
308 1 0.178542 0.0357682 0.250229 55.845 1.55473e-07 
310 1 0.214287 0.0714319 0.250204 55.845 1.31952e-07 
312 1 0.24997 0.107133 0.250266 55.845 1.96489e-07 
322 1 0.214287 -4.64384e-05 0.250208 55.845 -6.65186e-08 
324 1 0.249975 0.0357144 0.250214 55.845 1.02568e-07 
30 1 0.285814 0.107113 0.460001 55.845 -8.51994e-08 
35 1 0.250079 3.5798e-05 0.460071 55.845 2.98537e-08 
36 1 0.285783 0.0356651 0.460034 55.845 6.42708e-08 
37 1 0.321493 0.0713143 0.460127 55.845 -1.19076e-07 
38 1 0.357191 0.107061 0.460099 55.845 -1.28238e-07 
42 1 0.321435 1.01975e-06 0.460112 55.845 -2.856e-08 
43 1 0.35714 0.0356765 0.459967 55.845 -1.61437e-07 
109 1 0.285768 0.107138 0.376135 55.845 -9.85635e-08 
119 1 0.250014 -3.2479e-05 0.376055 55.845 3.62682e-08 
121 1 0.285759 0.0357467 0.376128 55.845 2.59143e-08 
122 1 0.285768 0.0714493 0.418392 55.845 1.15609e-07 
123 1 0.321453 0.0714698 0.376146 55.845 -1.33357e-07 
124 1 0.321536 0.107105 0.41842 55.845 -3.54316e-08 
125 1 0.35716 0.107142 0.376119 55.845 -1.98488e-07 
133 1 0.321494 5.82459e-05 0.376132 55.845 1.94098e-09 
134 1 0.321491 0.035687 0.418343 55.845 1.54851e-07 
135 1 0.357145 0.03573 0.376115 55.845 -1.65649e-07 
136 1 0.357177 0.071368 0.4184 55.845 -4.91085e-09 
211 1 0.285745 0.107128 0.291138 55.845 -6.7649e-08 
221 1 0.249981 -1.95183e-05 0.291009 55.845 -2.62559e-07 
223 1 0.285688 0.0356713 0.291197 55.845 -1.41236e-07 
224 1 0.285678 0.0714042 0.333345 55.845 5.24687e-08 
225 1 0.32149 0.071378 0.291089 55.845 -1.23215e-07 
226 1 0.321384 0.107121 0.333376 55.845 -9.59349e-08 
227 1 0.357227 0.107081 0.291161 55.845 -1.60192e-07 
235 1 0.321448 -3.75617e-05 0.291221 55.845 -7.32582e-08 
236 1 0.321501 0.0357265 0.333474 55.845 3.15763e-08 
237 1 0.357205 0.0356931 0.291165 55.845 -2.48059e-07 
238 1 0.357229 0.071415 0.333389 55.845 -1.31662e-07 
326 1 0.285668 0.0714129 0.250156 55.845 1.83567e-07 
328 1 0.321498 0.107235 0.250267 55.845 2.25722e-07 
338 1 0.32141 0.0357628 0.250176 55.845 1.90013e-07 
340 1 0.357188 0.0713779 0.250203 55.845 1.97559e-07 
44 1 0.392926 0.0713958 0.460102 55.845 -1.04773e-07 
45 1 0.428584 0.107094 0.460057 55.845 4.94131e-08 
47 1 0.392882 -7.03414e-05 0.460053 55.845 -8.54842e-08 
48 1 0.428661 0.0356814 0.460069 55.845 -5.08232e-08 
49 1 0.464307 0.0714597 0.460001 55.845 1.7088e-08 
50 1 0.464304 1.05373e-05 0.459977 55.845 2.34287e-08 
137 1 0.392959 0.0713864 0.376129 55.845 -1.43053e-07 
138 1 0.392792 0.107093 0.418375 55.845 8.53994e-08 
139 1 0.428569 0.107192 0.376221 55.845 6.39145e-08 
144 1 0.39283 -2.98969e-05 0.37606 55.845 -1.43196e-07 
145 1 0.392827 0.0357108 0.418491 55.845 6.66278e-08 
146 1 0.428593 0.0357743 0.376149 55.845 -1.01472e-07 
147 1 0.428582 0.0714197 0.418375 55.845 1.4299e-07 
148 1 0.464221 0.0714507 0.376183 55.845 6.77128e-08 
149 1 0.464335 0.107115 0.418265 55.845 1.04343e-07 
150 1 0.42857 7.26542e-05 0.418285 55.845 2.76411e-07 
151 1 0.464317 -2.24125e-05 0.376125 55.845 1.96568e-09 
152 1 0.46427 0.0357055 0.418309 55.845 2.01881e-07 
239 1 0.392919 0.0713162 0.291276 55.845 -2.02576e-07 
240 1 0.392884 0.107106 0.333498 55.845 5.55084e-08 
241 1 0.428602 0.10714 0.291287 55.845 -2.39073e-08 
246 1 0.392907 -6.80811e-05 0.291183 55.845 -3.13635e-07 
247 1 0.392878 0.0357073 0.333576 55.845 -1.81716e-08 
248 1 0.42864 0.0356548 0.291331 55.845 -2.4955e-07 
249 1 0.428653 0.0713712 0.333364 55.845 5.67857e-08 
250 1 0.464286 0.0714315 0.291235 55.845 -9.52063e-08 
251 1 0.464271 0.107169 0.333456 55.845 1.55636e-07 
252 1 0.428612 -4.43559e-05 0.333544 55.845 1.30531e-07 
253 1 0.464275 -0.000130878 0.291272 55.845 -1.91028e-07 
254 1 0.464278 0.0356909 0.333415 55.845 9.70489e-08 
342 1 0.392864 0.107082 0.250188 55.845 2.85788e-07 
349 1 0.392868 0.0356758 0.250194 55.845 9.32964e-08 
351 1 0.42856 0.0714302 0.250265 55.845 2.53935e-07 
353 1 0.464257 0.107117 0.250364 55.845 2.81452e-07 
354 1 0.428561 -3.39564e-05 0.25015 55.845 1.24547e-07 
356 1 0.464271 0.0356372 0.250315 55.845 1.41394e-07 
1 1 -2.48668e-05 0.178529 0.460016 55.845 3.43525e-08 
2 1 0.0356915 0.214288 0.459947 55.845 2.57111e-08 
4 1 0.0356721 0.142888 0.459883 55.845 1.59563e-07 
5 1 0.0715051 0.178544 0.459907 55.845 1.68804e-07 
6 1 0.107166 0.214225 0.459926 55.845 -1.29665e-07 
10 1 0.107159 0.142869 0.459955 55.845 1.22532e-07 
51 1 5.74658e-05 0.178508 0.376012 55.845 3.05918e-08 
52 1 -4.68206e-05 0.214281 0.418406 55.845 4.8118e-08 
53 1 0.0356853 0.214289 0.376105 55.845 8.71995e-08 
54 1 0.0356698 0.249958 0.41835 55.845 1.81754e-07 
56 1 -2.90756e-05 0.142891 0.418253 55.845 1.90519e-07 
57 1 0.0357035 0.142898 0.376098 55.845 1.46769e-07 
58 1 0.035723 0.178584 0.41827 55.845 2.2446e-07 
59 1 0.0715127 0.178593 0.376052 55.845 1.49105e-07 
60 1 0.0714297 0.214246 0.418305 55.845 2.56759e-08 
61 1 0.107164 0.214236 0.37616 55.845 -1.06093e-07 
62 1 0.107151 0.249941 0.418402 55.845 -7.76106e-08 
68 1 0.0714191 0.142819 0.418328 55.845 1.50396e-07 
69 1 0.10725 0.142843 0.376089 55.845 -1.15502e-08 
70 1 0.107186 0.178433 0.418311 55.845 3.67822e-08 
153 1 2.634e-05 0.178567 0.291113 55.845 -2.22139e-07 
154 1 -6.05133e-05 0.214308 0.33328 55.845 -5.17558e-08 
155 1 0.0357639 0.214252 0.291304 55.845 -1.16315e-07 
156 1 0.0358377 0.250008 0.333467 55.845 5.3879e-08 
158 1 -9.63199e-05 0.142854 0.333264 55.845 8.94684e-08 
159 1 0.0356611 0.142947 0.291161 55.845 1.20437e-08 
160 1 0.0356922 0.178572 0.333356 55.845 4.17417e-08 
161 1 0.0714297 0.178616 0.291246 55.845 -9.00982e-09 
162 1 0.0714917 0.214305 0.333473 55.845 1.19424e-08 
163 1 0.107129 0.214309 0.291229 55.845 -1.41242e-07 
164 1 0.107185 0.249933 0.333439 55.845 -5.07831e-08 
170 1 0.0714298 0.142868 0.333405 55.845 -1.40141e-08 
171 1 0.107139 0.14284 0.291244 55.845 -4.08306e-08 
172 1 0.107232 0.178598 0.333398 55.845 -6.15123e-08 
256 1 7.38712e-05 0.21434 0.250114 55.845 -2.53496e-08 
258 1 0.0357319 0.249916 0.250156 55.845 1.9322e-07 
260 1 -4.99304e-05 0.142856 0.250053 55.845 2.3127e-08 
262 1 0.0357373 0.178574 0.250217 55.845 7.91469e-08 
264 1 0.0714546 0.214252 0.250299 55.845 2.50033e-07 
266 1 0.1072 0.249935 0.250127 55.845 1.74898e-07 
272 1 0.0714441 0.142837 0.250252 55.845 5.10674e-08 
274 1 0.107195 0.178568 0.250295 55.845 2.255e-07 
11 1 0.142853 0.178488 0.460093 55.845 -4.99672e-08 
12 1 0.178671 0.214256 0.460141 55.845 6.87109e-08 
17 1 0.178628 0.142858 0.460083 55.845 1.74765e-08 
18 1 0.214351 0.178565 0.460002 55.845 1.24482e-07 
19 1 0.249972 0.214262 0.460014 55.845 1.05127e-07 
24 1 0.249998 0.142827 0.460002 55.845 -1.39615e-08 
71 1 0.142879 0.178555 0.376243 55.845 -7.33588e-08 
72 1 0.142868 0.214238 0.418489 55.845 -1.10272e-07 
73 1 0.178684 0.214284 0.376184 55.845 1.15222e-07 
82 1 0.142911 0.142779 0.418307 55.845 8.70533e-09 
83 1 0.178635 0.142817 0.376115 55.845 -1.15972e-08 
84 1 0.178677 0.178564 0.41834 55.845 7.03052e-08 
85 1 0.21436 0.178624 0.376073 55.845 1.87073e-07 
86 1 0.214328 0.214303 0.418373 55.845 2.39124e-07 
87 1 0.250067 0.214202 0.376125 55.845 2.25858e-07 
96 1 0.214341 0.142887 0.418289 55.845 1.26669e-07 
97 1 0.250028 0.142801 0.376136 55.845 4.82011e-08 
98 1 0.250063 0.17858 0.418331 55.845 5.68784e-08 
173 1 0.143009 0.178592 0.291241 55.845 -1.78934e-07 
174 1 0.142902 0.214226 0.333475 55.845 -4.33312e-08 
175 1 0.178677 0.21434 0.291214 55.845 -1.7429e-07 
184 1 0.142945 0.142881 0.333503 55.845 -3.33675e-08 
185 1 0.178634 0.142809 0.291318 55.845 -8.77628e-08 
186 1 0.178643 0.178554 0.333401 55.845 5.66826e-08 
187 1 0.214328 0.178584 0.291152 55.845 -7.82072e-08 
188 1 0.214389 0.214364 0.333476 55.845 1.55875e-07 
189 1 0.250017 0.214382 0.291226 55.845 -1.25737e-07 
198 1 0.214392 0.142884 0.33337 55.845 1.54163e-07 
199 1 0.250001 0.142898 0.291213 55.845 -3.547e-08 
200 1 0.250039 0.178584 0.333528 55.845 7.17246e-08 
276 1 0.142925 0.21425 0.250274 55.845 1.9755e-07 
286 1 0.142852 0.142807 0.250312 55.845 1.63504e-07 
288 1 0.178603 0.178582 0.250182 55.845 2.25093e-07 
290 1 0.214381 0.214343 0.250153 55.845 1.52858e-07 
300 1 0.214347 0.142786 0.250176 55.845 1.85349e-07 
302 1 0.250027 0.178555 0.25011 55.845 1.4604e-07 
25 1 0.285691 0.178562 0.460071 55.845 -1.27303e-07 
26 1 0.321497 0.21425 0.46002 55.845 -9.48097e-08 
31 1 0.321406 0.142879 0.460017 55.845 -1.67495e-07 
32 1 0.35713 0.178556 0.460057 55.845 -3.79602e-08 
99 1 0.285754 0.1786 0.376058 55.845 -2.55316e-08 
100 1 0.285763 0.214321 0.418235 55.845 -3.71875e-08 
101 1 0.321477 0.214251 0.376115 55.845 -5.18026e-08 
110 1 0.285752 0.142877 0.41833 55.845 -1.00872e-07 
111 1 0.321414 0.142808 0.37615 55.845 -2.61419e-07 
112 1 0.32137 0.178542 0.418292 55.845 -4.77637e-08 
113 1 0.357168 0.178548 0.376163 55.845 -1.24463e-07 
114 1 0.357152 0.214293 0.418396 55.845 8.24325e-08 
126 1 0.357122 0.14283 0.418423 55.845 5.04125e-08 
201 1 0.285697 0.178579 0.291143 55.845 -1.59005e-07 
202 1 0.285719 0.214287 0.33343 55.845 -2.48383e-08 
203 1 0.321439 0.21429 0.291098 55.845 -1.69268e-07 
212 1 0.285695 0.142836 0.333455 55.845 -1.72623e-08 
213 1 0.321479 0.142765 0.291288 55.845 -1.27634e-07 
214 1 0.321483 0.178569 0.333412 55.845 -3.85247e-08 
215 1 0.357126 0.178518 0.291306 55.845 -2.17539e-07 
216 1 0.357149 0.214295 0.333347 55.845 8.55885e-08 