ITEM: TIMESTEP
9800
ITEM: NUMBER OF ATOMS
5880
ITEM: BOX BOUNDS pp pp ff
-27.8573 27.8573
-27.8573 27.8573
0 34.092
ITEM: ATOMS id type xs ys zs mass q 
259 1 -4.68935e-06 0.107237 0.211095 55.845 -1.50556e-07 
267 1 -7.10617e-05 0.0359004 0.210843 55.845 -2.18233e-07 
269 1 0.0357795 0.0713732 0.210642 55.845 -2.91628e-07 
271 1 0.071396 0.107167 0.210748 55.845 -2.08457e-07 
279 1 0.0357268 7.27437e-05 0.210676 55.845 -1.88822e-07 
281 1 0.0714282 0.0358428 0.210636 55.845 -3.62703e-07 
283 1 0.107133 0.0714389 0.210635 55.845 -2.99809e-07 
293 1 0.10725 8.98461e-05 0.210757 55.845 -2.33534e-07 
361 1 -1.42837e-05 0.107166 0.126491 55.845 -1.64435e-07 
369 1 8.06562e-05 0.0357685 0.126333 55.845 6.72419e-08 
370 1 -8.67185e-05 0.0715389 0.167646 55.845 -4.3854e-07 
371 1 0.0356907 0.0715489 0.12623 55.845 -1.10952e-07 
372 1 0.035762 0.107215 0.167703 55.845 -4.84652e-07 
373 1 0.0712016 0.107171 0.126396 55.845 -1.07839e-07 
380 1 -3.89284e-05 1.59433e-05 0.167714 55.845 -3.31535e-07 
381 1 0.0356551 0.000135836 0.126187 55.845 1.59603e-08 
382 1 0.0357243 0.035724 0.167764 55.845 -3.16194e-07 
383 1 0.0714104 0.0357687 0.126111 55.845 -1.00739e-07 
384 1 0.0714798 0.0715561 0.167466 55.845 -5.00065e-07 
385 1 0.10698 0.0713735 0.126107 55.845 6.84359e-08 
386 1 0.107128 0.107132 0.167367 55.845 -4.75393e-07 
394 1 0.0715697 -3.30727e-05 0.167426 55.845 -3.82375e-07 
395 1 0.107198 -3.01242e-05 0.126326 55.845 -4.00308e-08 
396 1 0.107224 0.0357833 0.167764 55.845 -3.6322e-07 
463 1 0 0.107143 0.0416667 55.845 6.93171e-07 
471 1 0 0.0357143 0.0416667 55.845 6.7416e-07 
472 1 -3.33029e-05 0.0714264 0.0847317 55.845 -8.59947e-08 
473 1 0.0357143 0.0714286 0.0416667 55.845 7.48571e-07 
474 1 0.0356437 0.10721 0.0848205 55.845 -1.37283e-07 
475 1 0.0714286 0.107143 0.0416667 55.845 7.88757e-07 
482 1 4.91187e-05 5.6411e-05 0.0847175 55.845 1.04997e-07 
483 1 0.0357143 0 0.0416667 55.845 6.86029e-07 
484 1 0.0357134 0.0357695 0.0847201 55.845 -1.64849e-07 
485 1 0.0714286 0.0357143 0.0416667 55.845 7.52575e-07 
486 1 0.0714568 0.0714965 0.0848679 55.845 -5.75413e-08 
487 1 0.107143 0.0714286 0.0416667 55.845 7.23649e-07 
488 1 0.107138 0.107171 0.084764 55.845 -4.67241e-08 
496 1 0.0714028 6.77392e-05 0.0846039 55.845 -1.63028e-07 
497 1 0.107143 0 0.0416667 55.845 7.28795e-07 
498 1 0.107178 0.0356213 0.0847433 55.845 8.94682e-09 
567 1 0 0.0714286 0 55.845 -5.61472e-07 
568 1 0.0357143 0.107143 0 55.845 -2.70394e-07 
572 1 0 0 0 55.845 -5.81079e-07 
573 1 0.0357143 0.0357143 0 55.845 -5.82535e-07 
574 1 0.0714286 0.0714286 0 55.845 -4.51549e-07 
575 1 0.107143 0.107143 0 55.845 -6.19015e-07 
579 1 0.0714286 0 0 55.845 -6.10677e-07 
580 1 0.107143 0.0357143 0 55.845 -4.7557e-07 
285 1 0.142719 0.107227 0.21056 55.845 -4.05975e-07 
295 1 0.142933 0.0357691 0.210947 55.845 -2.17262e-07 
297 1 0.178501 0.0713438 0.21099 55.845 -2.79696e-07 
299 1 0.214178 0.107279 0.210902 55.845 -4.39235e-07 
307 1 0.178728 2.51457e-05 0.210828 55.845 -4.44591e-08 
309 1 0.214392 0.0358344 0.210909 55.845 -8.769e-08 
311 1 0.250111 0.0714198 0.210928 55.845 -3.12559e-07 
387 1 0.142815 0.107183 0.126355 55.845 1.09771e-07 
397 1 0.142825 0.0358714 0.126089 55.845 9.07531e-08 
398 1 0.142726 0.0714302 0.167724 55.845 -4.28819e-07 
399 1 0.178624 0.0714545 0.126366 55.845 3.66275e-08 
400 1 0.178365 0.107257 0.167962 55.845 -4.26318e-07 
401 1 0.21414 0.107093 0.126374 55.845 1.0437e-07 
408 1 0.143068 0.000117008 0.167577 55.845 -3.53018e-07 
409 1 0.178653 6.2611e-05 0.126271 55.845 -5.50866e-09 
410 1 0.178661 0.0357461 0.16775 55.845 -2.8026e-07 
411 1 0.214327 0.0357198 0.126326 55.845 1.50631e-08 
412 1 0.214352 0.0715203 0.167781 55.845 -3.63813e-07 
413 1 0.250017 0.0714644 0.126383 55.845 -8.77244e-09 
414 1 0.249971 0.107159 0.167823 55.845 -3.30082e-07 
424 1 0.214353 0.000129037 0.167885 55.845 -3.13184e-07 
426 1 0.25017 0.0357728 0.16771 55.845 -3.6509e-07 
489 1 0.142857 0.107143 0.0416667 55.845 5.41386e-07 
499 1 0.142857 0.0357143 0.0416667 55.845 7.54357e-07 
500 1 0.142794 0.0714991 0.0849638 55.845 1.88738e-09 
501 1 0.178571 0.0714286 0.0416667 55.845 7.22867e-07 
502 1 0.178523 0.10709 0.0847987 55.845 -1.23923e-08 
503 1 0.214286 0.107143 0.0416667 55.845 6.22982e-07 
510 1 0.142896 -7.31388e-05 0.0847502 55.845 1.47947e-08 
511 1 0.178571 0 0.0416667 55.845 7.78292e-07 
512 1 0.178579 0.035837 0.0849576 55.845 -2.98596e-08 
513 1 0.214286 0.0357143 0.0416667 55.845 6.92391e-07 
514 1 0.214263 0.0714626 0.0849022 55.845 -3.05691e-08 
515 1 0.25 0.0714286 0.0416667 55.845 6.20262e-07 
516 1 0.25004 0.107231 0.0848466 55.845 1.24808e-07 
526 1 0.214347 5.66078e-05 0.0848523 55.845 -4.1885e-08 
528 1 0.25009 0.0356693 0.0849376 55.845 -1.12069e-07 
581 1 0.142857 0.0714286 0 55.845 -5.86192e-07 
582 1 0.178571 0.107143 0 55.845 -7.26799e-07 
586 1 0.142857 0 0 55.845 -3.48921e-07 
587 1 0.178571 0.0357143 0 55.845 -2.46505e-07 
588 1 0.214286 0.0714286 0 55.845 -4.34225e-07 
589 1 0.25 0.107143 0 55.845 -6.89753e-07 
594 1 0.214286 0 0 55.845 -3.38252e-07 
595 1 0.25 0.0357143 0 55.845 -4.86114e-07 
313 1 0.285739 0.107217 0.210785 55.845 -4.23244e-07 
323 1 0.250038 7.37728e-05 0.211004 55.845 -1.26021e-07 
325 1 0.285729 0.0356377 0.211074 55.845 -3.15226e-07 
327 1 0.321389 0.0714185 0.210921 55.845 -2.95186e-07 
329 1 0.357099 0.107325 0.210858 55.845 -1.77702e-07 
337 1 0.32152 -1.52418e-05 0.210984 55.845 -3.48832e-07 
339 1 0.357118 0.0357278 0.210938 55.845 -2.84325e-07 
415 1 0.285678 0.107144 0.126274 55.845 1.88204e-07 
425 1 0.250105 4.74558e-06 0.126412 55.845 -2.7697e-08 
427 1 0.285788 0.0357537 0.126198 55.845 -5.33659e-08 
428 1 0.285641 0.0713997 0.167709 55.845 -4.57057e-07 
429 1 0.321427 0.0714062 0.126308 55.845 8.23534e-08 
430 1 0.321456 0.107086 0.167688 55.845 -4.06039e-07 
431 1 0.357077 0.107059 0.126208 55.845 -2.29083e-08 
439 1 0.32147 5.40251e-05 0.126355 55.845 -4.85555e-08 
440 1 0.321399 0.0356292 0.16776 55.845 -4.63923e-07 
441 1 0.357174 0.0356424 0.126577 55.845 1.36798e-07 
442 1 0.357071 0.0715468 0.167901 55.845 -3.80701e-07 
517 1 0.285714 0.107143 0.0416667 55.845 6.72175e-07 
527 1 0.25 0 0.0416667 55.845 6.32065e-07 
529 1 0.285714 0.0357143 0.0416667 55.845 5.79939e-07 
530 1 0.285728 0.0715178 0.0850379 55.845 -3.00252e-08 
531 1 0.321429 0.0714286 0.0416667 55.845 7.28064e-07 
532 1 0.321437 0.10715 0.0848076 55.845 -5.90695e-08 
533 1 0.357143 0.107143 0.0416667 55.845 6.11453e-07 
603 1 0.357143 0.0714286 0 55.845 -4.36765e-07 
541 1 0.321429 0 0.0416667 55.845 7.41749e-07 
542 1 0.321431 0.0357529 0.084904 55.845 -4.61115e-08 
543 1 0.357143 0.0357143 0.0416667 55.845 7.35576e-07 
544 1 0.357072 0.0713446 0.0851106 55.845 1.5768e-08 
602 1 0.321429 0.0357143 0 55.845 -4.25254e-07 
596 1 0.285714 0.0714286 0 55.845 -5.19937e-07 
597 1 0.321429 0.107143 0 55.845 -6.14607e-07 
612 1 0.464286 0.0357143 0 55.845 -5.7034e-07 
611 1 0.428571 0 0 55.845 -7.47906e-07 
610 1 0.464286 0.107143 0 55.845 -3.06207e-07 
609 1 0.428571 0.0714286 0 55.845 -3.88262e-07 
608 1 0.392857 0.0357143 0 55.845 -5.80255e-07 
341 1 0.39286 0.0715548 0.210876 55.845 -3.44084e-07 
343 1 0.428527 0.107225 0.211167 55.845 -3.74725e-07 
348 1 0.392895 4.03829e-07 0.210738 55.845 -2.2688e-07 
350 1 0.428613 0.0357576 0.210982 55.845 -3.15524e-07 
352 1 0.464291 0.0714971 0.210932 55.845 -2.93606e-07 
355 1 0.464348 -4.36179e-05 0.210934 55.845 -3.96476e-07 
443 1 0.392758 0.0714248 0.126374 55.845 1.57837e-07 
444 1 0.392832 0.107106 0.167584 55.845 -3.98147e-07 
445 1 0.428577 0.107182 0.126272 55.845 -1.29049e-07 
604 1 0.392857 0.107143 0 55.845 -3.65895e-07 
450 1 0.392931 8.23376e-05 0.126442 55.845 2.47749e-07 
451 1 0.392865 0.0357949 0.167719 55.845 -4.03679e-07 
452 1 0.428592 0.0356793 0.126387 55.845 2.15458e-07 
453 1 0.428613 0.0715408 0.167686 55.845 -4.55386e-07 
454 1 0.46425 0.0715798 0.12629 55.845 -4.60848e-08 
455 1 0.464282 0.107185 0.167733 55.845 -4.65759e-07 
456 1 0.42853 -1.38634e-06 0.167856 55.845 -4.01246e-07 
457 1 0.464432 7.0322e-05 0.126349 55.845 2.14207e-07 
458 1 0.464316 0.0358519 0.16791 55.845 -4.2441e-07 
545 1 0.392857 0.0714286 0.0416667 55.845 8.04814e-07 
546 1 0.392819 0.107096 0.0849287 55.845 -5.3095e-08 
547 1 0.428571 0.107143 0.0416667 55.845 7.92947e-07 
552 1 0.392857 0 0.0416667 55.845 6.14442e-07 
553 1 0.392889 0.0356837 0.0849584 55.845 -3.44327e-08 
554 1 0.428571 0.0357143 0.0416667 55.845 6.93486e-07 
555 1 0.428468 0.0714448 0.0849781 55.845 -7.16537e-08 
556 1 0.464286 0.0714286 0.0416667 55.845 6.38348e-07 
557 1 0.464231 0.107131 0.0849155 55.845 -1.71657e-07 
558 1 0.428599 -9.8192e-06 0.0849068 55.845 -5.14719e-08 
559 1 0.464286 0 0.0416667 55.845 7.59116e-07 
560 1 0.464263 0.0357118 0.0850306 55.845 -1.82437e-07 
255 1 -3.97036e-05 0.178771 0.210783 55.845 -1.5056e-07 
257 1 0.035735 0.214289 0.210652 55.845 -2.86211e-07 
261 1 0.0357029 0.14287 0.210906 55.845 -1.0839e-07 
263 1 0.0713046 0.178673 0.210749 55.845 -1.74944e-07 
265 1 0.10721 0.214392 0.210582 55.845 -2.6179e-07 
273 1 0.107016 0.142936 0.210605 55.845 -2.43358e-07 
357 1 -5.36814e-05 0.1787 0.126384 55.845 -2.31962e-07 
358 1 3.02965e-05 0.214497 0.16773 55.845 -2.80236e-07 
359 1 0.0357726 0.214226 0.126124 55.845 -7.14808e-08 
360 1 0.0356888 0.250086 0.167782 55.845 -3.26718e-07 
362 1 -0.000160399 0.142821 0.167763 55.845 -3.35241e-07 
363 1 0.0357603 0.142917 0.126273 55.845 -1.58885e-07 
364 1 0.0356946 0.178541 0.167765 55.845 -3.69896e-07 
365 1 0.0713016 0.178567 0.126012 55.845 -1.15826e-07 
366 1 0.0714736 0.214311 0.167482 55.845 -3.80615e-07 
367 1 0.107039 0.214311 0.126312 55.845 8.15784e-08 
368 1 0.107168 0.250016 0.167602 55.845 -4.02278e-07 
374 1 0.0713244 0.142873 0.167727 55.845 -4.96119e-07 
375 1 0.107045 0.142854 0.126481 55.845 -6.10093e-08 
376 1 0.107069 0.178652 0.16756 55.845 -4.67506e-07 
459 1 0 0.178571 0.0416667 55.845 8.02044e-07 
460 1 -8.8509e-05 0.214206 0.0848974 55.845 -1.54247e-07 
461 1 0.0357143 0.214286 0.0416667 55.845 6.74612e-07 
462 1 0.0357622 0.250137 0.0850297 55.845 -2.08795e-07 
464 1 -2.12914e-05 0.142889 0.0848861 55.845 -1.18131e-07 
465 1 0.0357143 0.142857 0.0416667 55.845 7.38215e-07 
466 1 0.0357103 0.17866 0.0848449 55.845 -1.38401e-07 
467 1 0.0714286 0.178571 0.0416667 55.845 6.77184e-07 
468 1 0.0715453 0.214376 0.084746 55.845 2.70881e-08 
469 1 0.107143 0.214286 0.0416667 55.845 6.86974e-07 
470 1 0.107164 0.250107 0.0848619 55.845 5.19431e-08 
476 1 0.0713246 0.142865 0.0846254 55.845 -8.5881e-08 
477 1 0.107143 0.142857 0.0416667 55.845 5.59894e-07 
478 1 0.10725 0.178659 0.0850317 55.845 4.87156e-08 
561 1 0 0.214286 0 55.845 -3.57683e-07 
562 1 0.0357143 0.25 0 55.845 -5.34513e-07 
563 1 0 0.142857 0 55.845 -2.59218e-07 
564 1 0.0357143 0.178571 0 55.845 -3.17219e-07 
565 1 0.0714286 0.214286 0 55.845 -4.49958e-07 
566 1 0.107143 0.25 0 55.845 -5.25229e-07 
569 1 0.0714286 0.142857 0 55.845 -3.3736e-07 
570 1 0.107143 0.178571 0 55.845 -5.82703e-07 
275 1 0.142797 0.178656 0.210613 55.845 -3.69325e-07 
277 1 0.178611 0.214389 0.210733 55.845 -3.5445e-07 
287 1 0.178567 0.142969 0.210999 55.845 -5.38241e-07 
289 1 0.214238 0.178552 0.21078 55.845 -4.70241e-07 
291 1 0.250075 0.214257 0.210882 55.845 -2.71831e-07 
301 1 0.250005 0.142891 0.210706 55.845 -5.23816e-07 
377 1 0.142922 0.178449 0.126503 55.845 -9.4849e-09 
378 1 0.142904 0.2144 0.167424 55.845 -4.08054e-07 
379 1 0.178602 0.214343 0.126375 55.845 9.57509e-08 
388 1 0.142798 0.142988 0.167699 55.845 -4.81846e-07 
389 1 0.178504 0.142787 0.126181 55.845 1.91396e-08 
390 1 0.178514 0.178568 0.167715 55.845 -3.64171e-07 
391 1 0.214252 0.178637 0.12617 55.845 5.84827e-08 
392 1 0.214329 0.214338 0.167679 55.845 -3.41546e-07 
393 1 0.249954 0.214347 0.12608 55.845 8.7043e-08 
402 1 0.214073 0.142746 0.16767 55.845 -3.41467e-07 
403 1 0.250038 0.142876 0.126382 55.845 1.87664e-07 
404 1 0.250046 0.178643 0.167628 55.845 -4.22449e-07 
479 1 0.142857 0.178571 0.0416667 55.845 5.41351e-07 
480 1 0.142757 0.214181 0.0847813 55.845 4.28458e-08 
481 1 0.178571 0.214286 0.0416667 55.845 7.52628e-07 
490 1 0.142878 0.142848 0.0846431 55.845 -5.73238e-08 
491 1 0.178571 0.142857 0.0416667 55.845 5.4869e-07 
492 1 0.178584 0.17862 0.0847849 55.845 2.38496e-08 
493 1 0.214286 0.178571 0.0416667 55.845 6.44467e-07 
494 1 0.214139 0.214206 0.0848116 55.845 1.65605e-07 
495 1 0.25 0.214286 0.0416667 55.845 6.02975e-07 
504 1 0.214217 0.142837 0.0848709 55.845 1.14474e-07 
505 1 0.25 0.142857 0.0416667 55.845 6.94354e-07 
506 1 0.249969 0.178488 0.0848896 55.845 1.71103e-07 
571 1 0.142857 0.214286 0 55.845 -5.84763e-07 
576 1 0.142857 0.142857 0 55.845 -8.12481e-07 
577 1 0.178571 0.178571 0 55.845 -6.76067e-07 
578 1 0.214286 0.214286 0 55.845 -6.25071e-07 
583 1 0.214286 0.142857 0 55.845 -7.9452e-07 
584 1 0.25 0.178571 0 55.845 -6.39017e-07 
303 1 0.285767 0.178579 0.210789 55.845 -3.80797e-07 
305 1 0.321463 0.214239 0.210909 55.845 -2.44096e-07 
315 1 0.321343 0.1429 0.210726 55.845 -3.20681e-07 
317 1 0.357206 0.178561 0.210884 55.845 -2.73532e-07 
405 1 0.285799 0.178692 0.126107 55.845 1.21735e-07 
406 1 0.285682 0.214289 0.167953 55.845 -4.74624e-07 
407 1 0.321467 0.214518 0.126481 55.845 -9.49215e-08 
416 1 0.285676 0.142947 0.167467 55.845 -4.2397e-07 
417 1 0.321544 0.142894 0.12621 55.845 -1.06569e-08 
418 1 0.321447 0.178534 0.167637 55.845 -4.78207e-07 
419 1 0.357212 0.178621 0.126085 55.845 -2.48956e-07 
420 1 0.357086 0.214068 0.167691 55.845 -4.89064e-07 
432 1 0.357123 0.142911 0.167661 55.845 -3.23611e-07 
507 1 0.285714 0.178571 0.0416667 55.845 7.25199e-07 
508 1 0.285799 0.214431 0.0848894 55.845 2.39001e-09 
509 1 0.321429 0.214286 0.0416667 55.845 6.98802e-07 
518 1 0.28565 0.142766 0.0847591 55.845 2.19683e-07 
519 1 0.321429 0.142857 0.0416667 55.845 5.9634e-07 
520 1 0.321448 0.178642 0.0847582 55.845 -3.24193e-08 
521 1 0.357143 0.178571 0.0416667 55.845 5.94691e-07 
522 1 0.357052 0.21432 0.0847152 55.845 -1.80274e-07 
534 1 0.357198 0.142857 0.0848698 55.845 -1.0724e-07 
585 1 0.285714 0.214286 0 55.845 -6.44252e-07 
590 1 0.285714 0.142857 0 55.845 -6.39653e-07 
591 1 0.321429 0.178571 0 55.845 -5.62388e-07 
592 1 0.357143 0.214286 0 55.845 -4.48729e-07 
598 1 0.357143 0.142857 0 55.845 -5.55816e-07 
319 1 0.392753 0.214163 0.210876 55.845 -3.93733e-07 
321 1 0.428461 0.24993 0.210896 55.845 -1.34603e-07 
331 1 0.392803 0.142818 0.21083 55.845 -2.27294e-07 
333 1 0.428525 0.178474 0.211005 55.845 -3.23479e-07 
335 1 0.464283 0.214213 0.21078 55.845 -4.00409e-08 
345 1 0.464257 0.142756 0.210826 55.845 -1.32869e-07 
606 1 0.464286 0.178571 0 55.845 -2.25776e-07 
421 1 0.392946 0.214182 0.126372 55.845 -3.76082e-07 
422 1 0.392845 0.249939 0.167688 55.845 -4.3314e-07 
423 1 0.428586 0.249902 0.12624 55.845 -1.69341e-07 
433 1 0.392821 0.142856 0.126114 55.845 -1.99459e-07 
434 1 0.393003 0.178474 0.167567 55.845 -3.82543e-07 
435 1 0.428547 0.178565 0.126193 55.845 -3.45867e-07 
436 1 0.428492 0.214233 0.167608 55.845 -4.78019e-07 
437 1 0.464214 0.214262 0.126531 55.845 -2.94481e-07 
605 1 0.428571 0.142857 0 55.845 -2.88049e-07 
446 1 0.42858 0.142791 0.167622 55.845 -4.65128e-07 
447 1 0.464269 0.142755 0.126264 55.845 -2.29493e-07 
448 1 0.464326 0.178453 0.167604 55.845 -4.4035e-07 
523 1 0.392857 0.214286 0.0416667 55.845 7.37408e-07 
524 1 0.392735 0.250037 0.0847357 55.845 -6.74579e-08 
525 1 0.428571 0.25 0.0416667 55.845 6.21847e-07 
535 1 0.392857 0.142857 0.0416667 55.845 6.92476e-07 
536 1 0.392934 0.178571 0.0847072 55.845 -1.36527e-07 
537 1 0.428571 0.178571 0.0416667 55.845 8.02836e-07 
538 1 0.428503 0.214288 0.0847688 55.845 -1.0347e-07 
539 1 0.464286 0.214286 0.0416667 55.845 7.08796e-07 
548 1 0.428674 0.142865 0.0847062 55.845 -4.8254e-08 
549 1 0.464286 0.142857 0.0416667 55.845 6.65655e-07 
550 1 0.464331 0.178589 0.0848772 55.845 -4.42014e-09 
593 1 0.392857 0.25 0 55.845 -4.29661e-07 
599 1 0.392857 0.178571 0 55.845 -3.89962e-07 
600 1 0.428571 0.214286 0 55.845 -3.34214e-07 
3 1 7.55267e-05 0.10698 0.46469 55.845 3.4799e-07 
7 1 5.12605e-05 0.0357311 0.464315 55.845 9.6473e-08 
8 1 0.0357979 0.0714875 0.46438 55.845 2.80583e-07 
9 1 0.0714604 0.107221 0.464265 55.845 6.97191e-07 
13 1 0.0357347 0.000151856 0.464559 55.845 2.10099e-07 
14 1 0.0713985 0.0357093 0.464471 55.845 2.961e-07 
15 1 0.107096 0.0713603 0.464267 55.845 4.30942e-07 
20 1 0.107209 -6.84513e-05 0.464569 55.845 3.12922e-07 
55 1 1.5488e-07 0.107109 0.379044 55.845 -6.56539e-07 
63 1 -5.58298e-06 0.035668 0.37884 55.845 -5.58463e-07 
64 1 -2.97557e-05 0.0714138 0.421976 55.845 -4.19712e-07 
65 1 0.0357151 0.0713426 0.378583 55.845 -4.78982e-07 
66 1 0.0356652 0.10714 0.421717 55.845 -4.44581e-07 
67 1 0.0715165 0.107145 0.378627 55.845 -5.91361e-07 
74 1 -0.000113822 1.61082e-06 0.421941 55.845 -3.02199e-07 
75 1 0.0356687 0.000106174 0.379056 55.845 -5.57173e-07 
76 1 0.0358416 0.0356838 0.421773 55.845 -4.33869e-07 
77 1 0.071445 0.0357272 0.37879 55.845 -5.54929e-07 
78 1 0.0713327 0.0713826 0.42158 55.845 -4.92403e-07 
79 1 0.10716 0.0713425 0.378759 55.845 -6.0708e-07 
80 1 0.107146 0.107194 0.421597 55.845 -3.64225e-07 
88 1 0.0714518 -2.0553e-06 0.422097 55.845 -3.31453e-07 
89 1 0.10711 -4.27621e-05 0.379087 55.845 -4.97153e-07 
90 1 0.107175 0.0357616 0.421718 55.845 -4.82898e-07 
157 1 -7.14385e-05 0.107197 0.295804 55.845 4.19676e-07 
165 1 5.09838e-05 0.0359149 0.295879 55.845 5.51197e-07 
166 1 -0.000125319 0.0714244 0.337117 55.845 3.09623e-07 
167 1 0.0356208 0.0714187 0.295713 55.845 5.52253e-07 
168 1 0.0357007 0.107084 0.337067 55.845 4.26771e-08 
169 1 0.071511 0.107153 0.295963 55.845 5.21191e-07 
176 1 -4.62281e-05 5.68788e-07 0.337251 55.845 3.42528e-07 
177 1 0.0357351 3.01545e-05 0.295851 55.845 5.30558e-07 
178 1 0.0357701 0.0356767 0.337046 55.845 3.54931e-07 
179 1 0.0713589 0.0357054 0.295985 55.845 4.32758e-07 
180 1 0.0714329 0.0714964 0.337171 55.845 2.44968e-07 
181 1 0.107184 0.0714535 0.295942 55.845 5.37293e-07 
182 1 0.107268 0.107183 0.337321 55.845 2.62289e-07 
190 1 0.0714172 -6.69817e-05 0.337272 55.845 2.82006e-07 
191 1 0.107053 8.99756e-06 0.295667 55.845 4.35866e-07 
192 1 0.107025 0.0356873 0.337036 55.845 2.63622e-07 
268 1 3.72156e-05 0.071447 0.254176 55.845 1.99995e-07 
270 1 0.0357436 0.107264 0.254187 55.845 3.33308e-07 
278 1 -0.000129495 0.000146568 0.253998 55.845 2.40347e-07 
280 1 0.0357066 0.0357035 0.25418 55.845 3.70161e-07 
282 1 0.071406 0.0714608 0.254205 55.845 4.0832e-07 
284 1 0.107091 0.107149 0.253858 55.845 3.2789e-07 
292 1 0.071424 9.34109e-05 0.253883 55.845 3.36039e-07 
294 1 0.107074 0.0358199 0.25422 55.845 2.83931e-07 
16 1 0.142818 0.107061 0.464305 55.845 3.35528e-07 
21 1 0.142974 0.0357229 0.46427 55.845 3.96063e-07 
22 1 0.178565 0.0714433 0.464178 55.845 3.80834e-07 
23 1 0.214336 0.107164 0.464333 55.845 3.13822e-07 
27 1 0.178476 0.000127091 0.464334 55.845 4.35505e-07 
28 1 0.21425 0.0358578 0.464122 55.845 4.04578e-07 
29 1 0.249886 0.0713518 0.464447 55.845 2.41043e-07 
81 1 0.142901 0.107143 0.378661 55.845 -4.09131e-07 
91 1 0.142828 0.0357461 0.378806 55.845 -6.87572e-07 
92 1 0.142812 0.071537 0.421617 55.845 -4.07981e-07 
93 1 0.178605 0.0715914 0.378698 55.845 -5.01335e-07 
94 1 0.178634 0.107209 0.421818 55.845 -4.14925e-07 
95 1 0.214282 0.107323 0.378719 55.845 -5.33057e-07 
102 1 0.142787 -1.17406e-07 0.421629 55.845 -3.32056e-07 
103 1 0.178576 5.53748e-05 0.378817 55.845 -7.33883e-07 
104 1 0.178485 0.0357581 0.421539 55.845 -3.96377e-07 
105 1 0.214259 0.0357696 0.378627 55.845 -6.04016e-07 
106 1 0.214321 0.0714449 0.421345 55.845 -4.58445e-07 
107 1 0.250163 0.0713965 0.378538 55.845 -5.02958e-07 
108 1 0.249959 0.107127 0.421789 55.845 -4.50971e-07 
118 1 0.214317 3.69698e-05 0.421826 55.845 -2.94413e-07 
120 1 0.250013 0.0356941 0.42146 55.845 -4.84923e-07 
183 1 0.142697 0.107191 0.2958 55.845 6.59819e-07 
193 1 0.142932 0.0356208 0.295807 55.845 4.73384e-07 
194 1 0.142825 0.0714504 0.337028 55.845 4.00508e-07 
195 1 0.178642 0.0714166 0.295841 55.845 6.30365e-07 
196 1 0.178593 0.107256 0.336927 55.845 4.9153e-07 
197 1 0.214133 0.107128 0.295855 55.845 4.13239e-07 
204 1 0.142813 2.24472e-05 0.3372 55.845 1.21501e-07 
205 1 0.178552 -4.58459e-05 0.296096 55.845 5.04775e-07 
206 1 0.178515 0.0358425 0.33724 55.845 2.06287e-07 
207 1 0.214271 0.0356415 0.295709 55.845 6.4065e-07 
208 1 0.214269 0.0714697 0.337063 55.845 2.49833e-07 
209 1 0.250033 0.0714379 0.296038 55.845 4.61997e-07 
210 1 0.249929 0.107261 0.33709 55.845 2.91838e-07 
220 1 0.214263 -6.36303e-05 0.337262 55.845 2.41237e-07 
222 1 0.249947 0.0356583 0.337149 55.845 3.42752e-07 
296 1 0.142807 0.0715217 0.254186 55.845 3.45766e-07 
298 1 0.178401 0.107206 0.253948 55.845 2.42313e-07 
306 1 0.14292 -6.37601e-05 0.254208 55.845 2.76261e-07 
308 1 0.178738 0.035739 0.254234 55.845 2.54244e-07 
310 1 0.214346 0.0714914 0.254135 55.845 2.65829e-07 
312 1 0.249992 0.10712 0.254298 55.845 9.9453e-08 
322 1 0.214256 6.68688e-06 0.254291 55.845 3.25788e-07 
324 1 0.249995 0.0358025 0.254298 55.845 3.69909e-07 
30 1 0.285543 0.107122 0.464426 55.845 3.57088e-07 
35 1 0.249814 8.68396e-05 0.464502 55.845 4.48889e-07 
36 1 0.285609 0.0357033 0.464398 55.845 3.74952e-07 
37 1 0.321327 0.0715206 0.464484 55.845 4.19609e-07 
38 1 0.357154 0.107087 0.464519 55.845 4.5791e-07 
42 1 0.321443 4.76361e-06 0.464258 55.845 5.57507e-07 
43 1 0.357077 0.0357194 0.464257 55.845 4.79818e-07 
109 1 0.285628 0.107035 0.378858 55.845 -3.19778e-07 
119 1 0.249998 1.09657e-05 0.378637 55.845 -5.26511e-07 
121 1 0.285641 0.0356522 0.378469 55.845 -6.05597e-07 
122 1 0.285756 0.0713729 0.42168 55.845 -4.8695e-07 
123 1 0.321424 0.0715111 0.378628 55.845 -5.1409e-07 
124 1 0.32139 0.107234 0.42191 55.845 -3.78994e-07 
125 1 0.357034 0.107232 0.379065 55.845 -4.98352e-07 
133 1 0.321409 2.98674e-05 0.378758 55.845 -5.61752e-07 
134 1 0.321362 0.0357978 0.421688 55.845 -4.34076e-07 
135 1 0.357097 0.0357724 0.378806 55.845 -5.76067e-07 
136 1 0.357048 0.0714117 0.421686 55.845 -4.08683e-07 
211 1 0.285619 0.107241 0.29596 55.845 5.95667e-07 
221 1 0.249846 -5.92301e-05 0.296088 55.845 6.99778e-07 
223 1 0.285628 0.0357043 0.295769 55.845 5.13571e-07 
224 1 0.285829 0.0714169 0.336776 55.845 2.28616e-07 
225 1 0.321443 0.0714507 0.29575 55.845 5.94286e-07 
226 1 0.321244 0.107192 0.337213 55.845 3.72606e-07 
227 1 0.357126 0.107159 0.295935 55.845 7.18117e-07 
235 1 0.321445 0.000127994 0.295786 55.845 3.76941e-07 
236 1 0.321348 0.0357447 0.337037 55.845 1.70702e-07 
237 1 0.357159 0.0356999 0.295998 55.845 4.80652e-07 
238 1 0.357089 0.0716064 0.336947 55.845 1.96327e-07 
326 1 0.285698 0.0714565 0.254065 55.845 2.12378e-07 
328 1 0.321405 0.10725 0.254287 55.845 2.18589e-07 
338 1 0.321415 0.0357478 0.25424 55.845 1.7632e-07 
340 1 0.357124 0.0714228 0.254243 55.845 2.75168e-07 
44 1 0.392899 0.0714063 0.464494 55.845 2.5599e-07 
45 1 0.428559 0.107258 0.464596 55.845 3.6489e-07 
47 1 0.39271 4.51781e-05 0.464417 55.845 2.85207e-07 
48 1 0.428537 0.0358424 0.464409 55.845 3.47489e-07 
49 1 0.464215 0.0715111 0.464391 55.845 4.17787e-07 
50 1 0.464258 5.57302e-06 0.464363 55.845 2.3842e-07 
137 1 0.392693 0.0715038 0.378918 55.845 -4.96126e-07 
138 1 0.392896 0.107106 0.421941 55.845 -3.8604e-07 
139 1 0.428729 0.107175 0.37902 55.845 -5.61421e-07 
144 1 0.392811 -4.92435e-05 0.378902 55.845 -4.80073e-07 
145 1 0.392846 0.0356323 0.421798 55.845 -3.01457e-07 
146 1 0.42851 0.0355837 0.378832 55.845 -5.09102e-07 
147 1 0.428485 0.0714407 0.421735 55.845 -4.50055e-07 
148 1 0.464268 0.0714036 0.378855 55.845 -6.36815e-07 
149 1 0.464184 0.10719 0.422046 55.845 -4.41465e-07 
150 1 0.428601 8.57887e-05 0.421819 55.845 -3.69932e-07 
151 1 0.464379 -0.000194735 0.378884 55.845 -4.90069e-07 
152 1 0.464213 0.0357104 0.42168 55.845 -4.98135e-07 
239 1 0.392991 0.0715642 0.295878 55.845 4.62683e-07 
240 1 0.392824 0.107187 0.337604 55.845 2.6154e-07 
241 1 0.428596 0.107152 0.296046 55.845 4.87045e-07 
246 1 0.392947 -9.54815e-05 0.296139 55.845 5.11476e-07 
247 1 0.392802 0.0357234 0.337273 55.845 3.45815e-07 
248 1 0.428555 0.0356666 0.295966 55.845 5.23855e-07 
249 1 0.428456 0.0712998 0.337441 55.845 3.02689e-07 
250 1 0.46435 0.071364 0.296178 55.845 4.39357e-07 
251 1 0.464312 0.107204 0.33717 55.845 1.22579e-07 
252 1 0.428587 -7.76261e-05 0.336927 55.845 3.59036e-07 
253 1 0.464239 -8.06557e-05 0.295885 55.845 5.36272e-07 
254 1 0.46436 0.0355982 0.337348 55.845 4.02826e-07 
342 1 0.392856 0.107216 0.254428 55.845 3.49307e-07 
349 1 0.392891 0.0356211 0.254274 55.845 1.6758e-07 
351 1 0.428623 0.0714953 0.254223 55.845 3.36266e-07 
353 1 0.464358 0.10715 0.254458 55.845 2.93892e-07 
354 1 0.42861 -1.76148e-05 0.254219 55.845 1.42971e-07 
356 1 0.464235 0.0356695 0.254324 55.845 3.59919e-07 
1 1 3.84352e-06 0.178442 0.464416 55.845 6.51227e-07 
2 1 0.0357802 0.214174 0.464381 55.845 4.71063e-07 
4 1 0.0357441 0.142738 0.464513 55.845 5.82405e-07 
5 1 0.071597 0.178596 0.464718 55.845 4.58514e-07 
6 1 0.107207 0.214169 0.464498 55.845 1.58683e-07 
10 1 0.10716 0.142835 0.464341 55.845 4.7202e-07 
51 1 0.000132338 0.178548 0.378609 55.845 -6.83128e-07 
52 1 2.72678e-05 0.214206 0.421683 55.845 -2.08326e-07 
53 1 0.0357422 0.214289 0.378886 55.845 -6.56756e-07 
54 1 0.0357658 0.249973 0.421681 55.845 -4.07636e-07 
56 1 0.000163066 0.142821 0.421843 55.845 -3.98651e-07 
57 1 0.0358758 0.142839 0.378694 55.845 -7.40881e-07 
58 1 0.0357427 0.178453 0.421808 55.845 -2.71463e-07 
59 1 0.0715367 0.178602 0.378882 55.845 -6.14828e-07 
60 1 0.0714833 0.214225 0.421855 55.845 -3.96235e-07 
61 1 0.107084 0.21422 0.378941 55.845 -6.11436e-07 
62 1 0.107108 0.249901 0.422042 55.845 -4.92921e-07 
68 1 0.0714661 0.1429 0.421802 55.845 -2.63712e-07 
69 1 0.107146 0.142918 0.378832 55.845 -3.89682e-07 
70 1 0.107212 0.178511 0.421844 55.845 -2.79877e-07 
153 1 6.10621e-05 0.178671 0.295803 55.845 3.98507e-07 
154 1 0.000149041 0.214232 0.337326 55.845 2.05441e-07 
155 1 0.0358026 0.214323 0.295998 55.845 6.04501e-07 
156 1 0.035802 0.250092 0.337085 55.845 2.51991e-07 
158 1 9.86293e-06 0.142915 0.33714 55.845 4.39315e-09 
159 1 0.035634 0.142853 0.295741 55.845 4.52699e-07 
160 1 0.0358785 0.178484 0.337028 55.845 1.40836e-07 
161 1 0.0715619 0.17867 0.296023 55.845 6.63105e-07 
162 1 0.0715145 0.214219 0.337371 55.845 1.90178e-07 
163 1 0.107116 0.214324 0.296031 55.845 5.71694e-07 
164 1 0.107217 0.250021 0.337441 55.845 2.50469e-07 
170 1 0.0715264 0.142843 0.337323 55.845 1.12093e-07 
171 1 0.107196 0.142894 0.295667 55.845 5.58214e-07 
172 1 0.10715 0.178576 0.337217 55.845 3.38164e-07 
256 1 7.76155e-06 0.214488 0.254234 55.845 4.30578e-07 
258 1 0.0358604 0.250114 0.254095 55.845 3.69442e-07 
260 1 -0.000127317 0.142898 0.254211 55.845 3.63538e-07 
262 1 0.0357417 0.178615 0.254301 55.845 4.28717e-07 
264 1 0.0715466 0.21435 0.254169 55.845 2.8133e-07 
266 1 0.107174 0.249995 0.254393 55.845 1.18792e-07 
272 1 0.0713878 0.142748 0.254402 55.845 3.16121e-07 
274 1 0.107046 0.178675 0.2541 55.845 1.99542e-07 
11 1 0.143028 0.178613 0.464296 55.845 2.36414e-07 
12 1 0.178552 0.21426 0.464583 55.845 6.57525e-08 
17 1 0.178622 0.142829 0.464235 55.845 2.16505e-07 
18 1 0.214377 0.178513 0.464727 55.845 1.83511e-07 
19 1 0.249925 0.21413 0.464685 55.845 1.96371e-07 
24 1 0.24999 0.142816 0.464593 55.845 2.17709e-07 
71 1 0.142904 0.178531 0.378843 55.845 -3.71786e-07 
72 1 0.142894 0.214273 0.421799 55.845 -3.78306e-07 
73 1 0.17858 0.214174 0.379073 55.845 -4.98042e-07 
82 1 0.142995 0.142878 0.421854 55.845 -2.11431e-07 
83 1 0.178659 0.142889 0.378669 55.845 -4.24063e-07 
84 1 0.178736 0.178495 0.421715 55.845 -4.25892e-07 
85 1 0.214347 0.178574 0.378884 55.845 -4.6722e-07 
86 1 0.214421 0.214301 0.42181 55.845 -2.69033e-07 
87 1 0.249996 0.214093 0.379076 55.845 -3.99661e-07 
96 1 0.214339 0.142871 0.421709 55.845 -4.50225e-07 
97 1 0.250088 0.142859 0.378914 55.845 -4.56538e-07 
98 1 0.250044 0.178506 0.422004 55.845 -3.05284e-07 
173 1 0.142799 0.178677 0.295715 55.845 5.5594e-07 
174 1 0.142851 0.21422 0.337447 55.845 3.13179e-07 
175 1 0.17851 0.214238 0.296068 55.845 4.8193e-07 
184 1 0.142965 0.142923 0.336995 55.845 4.60194e-07 
185 1 0.178414 0.142941 0.295614 55.845 5.41015e-07 
186 1 0.178576 0.178551 0.337245 55.845 4.2206e-07 
187 1 0.214185 0.178585 0.296026 55.845 5.31936e-07 
188 1 0.214235 0.214239 0.337253 55.845 4.32515e-07 
189 1 0.250042 0.214278 0.295993 55.845 5.94611e-07 
198 1 0.214167 0.142957 0.336943 55.845 2.90549e-07 
199 1 0.249847 0.142902 0.295668 55.845 4.68493e-07 
200 1 0.2499 0.178547 0.337209 55.845 4.31882e-07 
276 1 0.14287 0.214296 0.254318 55.845 1.45551e-07 
286 1 0.142673 0.142846 0.254001 55.845 2.40076e-07 
288 1 0.178426 0.178674 0.253948 55.845 1.67597e-07 
290 1 0.21423 0.214329 0.254321 55.845 1.072e-07 
300 1 0.214194 0.14293 0.254116 55.845 1.49683e-07 
302 1 0.249908 0.178573 0.253856 55.845 5.4653e-08 
25 1 0.285653 0.178477 0.464794 55.845 1.12595e-07 
26 1 0.321338 0.214344 0.464492 55.845 2.96777e-07 
31 1 0.321287 0.142857 0.464722 55.845 1.94105e-07 
32 1 0.357169 0.178515 0.464607 55.845 3.67382e-07 
99 1 0.285585 0.178521 0.379002 55.845 -5.58172e-07 
100 1 0.28562 0.214161 0.422176 55.845 -2.34577e-07 
101 1 0.321455 0.214214 0.37916 55.845 -4.05014e-07 
110 1 0.285591 0.142792 0.421866 55.845 -4.01854e-07 
111 1 0.321317 0.142843 0.378987 55.845 -4.13496e-07 
112 1 0.321307 0.17842 0.422269 55.845 -3.47523e-07 
113 1 0.357149 0.178521 0.379133 55.845 -5.12672e-07 
114 1 0.357189 0.214152 0.421946 55.845 -1.7591e-07 
126 1 0.356985 0.142861 0.422106 55.845 -3.15702e-07 
201 1 0.285634 0.178556 0.296008 55.845 6.97214e-07 
202 1 0.285723 0.214193 0.337363 55.845 3.25179e-07 
203 1 0.321528 0.2141 0.296007 55.845 6.22385e-07 
212 1 0.285591 0.142808 0.337344 55.845 3.57626e-07 
213 1 0.321325 0.142957 0.296212 55.845 6.9789e-07 
214 1 0.321324 0.178503 0.337596 55.845 1.94684e-07 
215 1 0.357127 0.178547 0.296185 55.845 6.29886e-07 