ITEM: TIMESTEP
3500
ITEM: NUMBER OF ATOMS
5880
ITEM: BOX BOUNDS pp pp ff
-27.9144 27.9144
-27.9144 27.9144
0 34.092
ITEM: ATOMS id type xs ys zs mass q 
259 1 -3.46186e-05 0.107216 0.210551 55.845 -7.43157e-07 
267 1 -6.65204e-05 0.0357261 0.21054 55.845 -9.68746e-07 
269 1 0.0356873 0.0714417 0.210663 55.845 -6.15778e-07 
271 1 0.0713981 0.107233 0.210529 55.845 -4.22138e-07 
279 1 0.0356164 9.76073e-06 0.210644 55.845 -4.69921e-07 
281 1 0.0713844 0.0357037 0.210564 55.845 -7.50943e-07 
283 1 0.107195 0.0714532 0.210589 55.845 -7.90945e-07 
293 1 0.107136 2.63803e-05 0.210529 55.845 -5.99682e-07 
361 1 2.73683e-05 0.107156 0.126038 55.845 6.73567e-07 
369 1 -1.22193e-05 0.035731 0.126084 55.845 4.06559e-07 
370 1 -4.98883e-05 0.0714475 0.168767 55.845 -7.20224e-08 
371 1 0.0357684 0.0714538 0.126075 55.845 5.12908e-07 
372 1 0.0357066 0.107205 0.168625 55.845 3.16191e-07 
373 1 0.0713997 0.107186 0.126002 55.845 6.95088e-07 
380 1 -5.559e-05 4.66336e-06 0.16865 55.845 8.09794e-07 
381 1 0.0357153 6.18138e-05 0.126144 55.845 3.4281e-07 
382 1 0.0356648 0.0357969 0.168825 55.845 1.13444e-07 
383 1 0.0714402 0.0357451 0.126168 55.845 6.77705e-07 
384 1 0.0714719 0.0714892 0.168716 55.845 1.36109e-07 
385 1 0.107185 0.0714233 0.125983 55.845 5.21007e-07 
386 1 0.107193 0.107214 0.16872 55.845 3.21617e-07 
394 1 0.071453 -7.52492e-06 0.168688 55.845 4.27866e-07 
395 1 0.107195 6.43848e-05 0.126042 55.845 5.49767e-07 
396 1 0.107198 0.0357525 0.168812 55.845 -1.21059e-07 
463 1 0 0.107143 0.0416667 55.845 3.90472e-07 
471 1 0 0.0357143 0.0416667 55.845 2.47891e-07 
472 1 8.15606e-06 0.0714389 0.0835366 55.845 -4.65042e-07 
473 1 0.0357143 0.0714286 0.0416667 55.845 2.45453e-07 
474 1 0.0356425 0.107169 0.0833812 55.845 -6.38846e-07 
475 1 0.0714286 0.107143 0.0416667 55.845 1.59221e-07 
482 1 9.04083e-05 3.51767e-05 0.0834231 55.845 -2.58606e-08 
483 1 0.0357143 0 0.0416667 55.845 -9.21816e-08 
484 1 0.0357739 0.0357538 0.0834901 55.845 -3.49912e-07 
485 1 0.0714286 0.0357143 0.0416667 55.845 1.76663e-07 
486 1 0.0714368 0.0714149 0.0834946 55.845 -4.03537e-07 
487 1 0.107143 0.0714286 0.0416667 55.845 3.21372e-07 
488 1 0.107066 0.107158 0.0834838 55.845 -2.04191e-07 
496 1 0.0715052 -3.44227e-05 0.083512 55.845 -1.1223e-07 
497 1 0.107143 0 0.0416667 55.845 1.13545e-08 
498 1 0.107103 0.0355911 0.0833776 55.845 -3.35762e-07 
567 1 0 0.0714286 0 55.845 -2.10895e-07 
568 1 0.0357143 0.107143 0 55.845 -3.61254e-07 
572 1 0 0 0 55.845 1.61604e-09 
573 1 0.0357143 0.0357143 0 55.845 6.92794e-08 
574 1 0.0714286 0.0714286 0 55.845 -1.22971e-07 
575 1 0.107143 0.107143 0 55.845 -9.8895e-08 
579 1 0.0714286 0 0 55.845 1.68524e-08 
580 1 0.107143 0.0357143 0 55.845 1.4346e-07 
285 1 0.142907 0.1071 0.210626 55.845 -7.19284e-07 
295 1 0.142892 0.0356876 0.210514 55.845 -8.72085e-07 
297 1 0.178596 0.0714634 0.210508 55.845 -6.02868e-07 
299 1 0.214232 0.107114 0.210606 55.845 -8.41503e-07 
307 1 0.178605 6.56282e-05 0.210591 55.845 -5.34496e-07 
309 1 0.214246 0.0357955 0.210575 55.845 -8.31873e-07 
311 1 0.249978 0.071439 0.210592 55.845 -8.79347e-07 
387 1 0.142906 0.10709 0.126006 55.845 3.97056e-07 
397 1 0.142935 0.035723 0.125826 55.845 7.54223e-07 
398 1 0.142897 0.0713986 0.168662 55.845 2.04319e-07 
399 1 0.178595 0.0715576 0.125979 55.845 5.35708e-07 
400 1 0.178562 0.107174 0.168764 55.845 5.36338e-07 
401 1 0.214314 0.107102 0.126124 55.845 5.20958e-07 
408 1 0.142931 -1.57242e-05 0.168644 55.845 4.151e-07 
409 1 0.178692 0.00010931 0.126078 55.845 7.5055e-07 
410 1 0.178595 0.0357966 0.168725 55.845 -1.77143e-09 
411 1 0.214292 0.0357366 0.126012 55.845 7.45737e-07 
412 1 0.214338 0.0714404 0.168757 55.845 -4.7493e-09 
413 1 0.249993 0.0714628 0.126096 55.845 6.07201e-07 
414 1 0.250024 0.107138 0.168697 55.845 -1.76992e-08 
424 1 0.214298 2.36988e-05 0.16872 55.845 2.97785e-07 
426 1 0.249976 0.0357651 0.168914 55.845 -3.23419e-07 
489 1 0.142857 0.107143 0.0416667 55.845 1.41846e-07 
499 1 0.142857 0.0357143 0.0416667 55.845 4.22239e-07 
500 1 0.142874 0.0714126 0.0834158 55.845 -5.26682e-07 
501 1 0.178571 0.0714286 0.0416667 55.845 4.18847e-07 
502 1 0.178577 0.107142 0.0834946 55.845 -1.31665e-07 
503 1 0.214286 0.107143 0.0416667 55.845 1.58842e-07 
510 1 0.142856 -1.01747e-05 0.0834576 55.845 -5.52068e-07 
511 1 0.178571 0 0.0416667 55.845 9.25792e-08 
512 1 0.178626 0.035738 0.0834193 55.845 -6.36985e-07 
513 1 0.214286 0.0357143 0.0416667 55.845 3.07641e-07 
514 1 0.214255 0.0714274 0.0834769 55.845 -4.05234e-07 
515 1 0.25 0.0714286 0.0416667 55.845 3.52474e-07 
516 1 0.249989 0.107184 0.0834086 55.845 -3.63429e-07 
526 1 0.214372 4.03258e-05 0.0833923 55.845 -3.78998e-07 
528 1 0.25 0.0357095 0.0834073 55.845 -7.52649e-07 
581 1 0.142857 0.0714286 0 55.845 -1.41262e-07 
582 1 0.178571 0.107143 0 55.845 -1.04347e-07 
586 1 0.142857 0 0 55.845 -1.74799e-07 
587 1 0.178571 0.0357143 0 55.845 -9.56135e-08 
588 1 0.214286 0.0714286 0 55.845 8.47534e-08 
589 1 0.25 0.107143 0 55.845 6.50745e-08 
594 1 0.214286 0 0 55.845 7.708e-08 
595 1 0.25 0.0357143 0 55.845 -3.69951e-08 
313 1 0.285746 0.107135 0.210789 55.845 -7.71613e-07 
323 1 0.249915 5.31467e-05 0.210691 55.845 -9.97868e-07 
325 1 0.285688 0.035718 0.210639 55.845 -6.43089e-07 
327 1 0.321395 0.0713932 0.210554 55.845 -5.55038e-07 
329 1 0.357131 0.107189 0.210643 55.845 -5.50999e-07 
337 1 0.321337 8.65441e-05 0.210543 55.845 -7.41636e-07 
339 1 0.357143 0.0357021 0.210531 55.845 -3.2998e-07 
415 1 0.285677 0.107096 0.12611 55.845 4.39373e-07 
425 1 0.250035 -1.56969e-05 0.12606 55.845 6.88977e-07 
427 1 0.285632 0.035676 0.12598 55.845 7.68482e-07 
428 1 0.285747 0.0714634 0.168734 55.845 -6.36578e-08 
429 1 0.321429 0.0714122 0.125973 55.845 9.8601e-07 
430 1 0.32144 0.107176 0.168827 55.845 3.45814e-07 
431 1 0.357106 0.107107 0.126107 55.845 6.94939e-07 
439 1 0.321409 -9.06259e-05 0.12604 55.845 8.36586e-07 
440 1 0.321416 0.0357158 0.168677 55.845 1.27884e-07 
441 1 0.357155 0.0357358 0.125897 55.845 1.17794e-06 
442 1 0.357108 0.0713835 0.168597 55.845 -2.50948e-08 
517 1 0.285714 0.107143 0.0416667 55.845 3.51082e-07 
527 1 0.25 0 0.0416667 55.845 2.40585e-07 
529 1 0.285714 0.0357143 0.0416667 55.845 3.04055e-07 
530 1 0.285664 0.0714387 0.0834314 55.845 -8.203e-07 
531 1 0.321429 0.0714286 0.0416667 55.845 5.50464e-07 
532 1 0.321379 0.107132 0.0834486 55.845 -4.22049e-07 
533 1 0.357143 0.107143 0.0416667 55.845 4.85784e-07 
603 1 0.357143 0.0714286 0 55.845 -2.12163e-07 
541 1 0.321429 0 0.0416667 55.845 6.20882e-07 
542 1 0.321366 0.0357248 0.0834674 55.845 -8.11194e-07 
543 1 0.357143 0.0357143 0.0416667 55.845 7.16099e-07 
544 1 0.357098 0.0714438 0.0833849 55.845 -4.82025e-07 
602 1 0.321429 0.0357143 0 55.845 -2.70814e-07 
596 1 0.285714 0.0714286 0 55.845 -2.56624e-07 
597 1 0.321429 0.107143 0 55.845 1.77384e-07 
612 1 0.464286 0.0357143 0 55.845 -1.17506e-07 
611 1 0.428571 0 0 55.845 -2.22256e-07 
610 1 0.464286 0.107143 0 55.845 3.50184e-08 
609 1 0.428571 0.0714286 0 55.845 -2.2567e-07 
608 1 0.392857 0.0357143 0 55.845 -2.0144e-07 
341 1 0.392864 0.0714091 0.210592 55.845 -6.76826e-07 
343 1 0.428557 0.107115 0.210482 55.845 -7.74115e-07 
348 1 0.39289 4.60687e-05 0.210597 55.845 -5.00154e-07 
350 1 0.428505 0.0357313 0.210652 55.845 -7.27697e-07 
352 1 0.464296 0.0713345 0.210681 55.845 -8.70343e-07 
355 1 0.464355 2.61051e-06 0.210604 55.845 -3.81149e-07 
443 1 0.392853 0.0714295 0.126092 55.845 9.6746e-07 
444 1 0.392856 0.107153 0.168695 55.845 3.77741e-07 
445 1 0.42853 0.10713 0.126128 55.845 4.23337e-07 
604 1 0.392857 0.107143 0 55.845 7.04475e-08 
450 1 0.392821 -4.97071e-05 0.12611 55.845 1.02547e-06 
451 1 0.392837 0.0357186 0.168663 55.845 -1.60812e-07 
452 1 0.428559 0.0357441 0.126132 55.845 1.18881e-06 
453 1 0.428607 0.0714473 0.168645 55.845 -4.06031e-08 
454 1 0.464336 0.0714492 0.126004 55.845 7.2506e-07 
455 1 0.464263 0.107138 0.168698 55.845 3.88369e-07 
456 1 0.428561 3.55106e-05 0.168692 55.845 -3.64776e-09 
457 1 0.464261 -1.29816e-05 0.126001 55.845 8.38589e-07 
458 1 0.464303 0.0357295 0.168639 55.845 -1.65051e-07 
545 1 0.392857 0.0714286 0.0416667 55.845 2.38458e-07 
546 1 0.392822 0.107136 0.0834518 55.845 -1.98324e-07 
547 1 0.428571 0.107143 0.0416667 55.845 6.96684e-08 
552 1 0.392857 0 0.0416667 55.845 8.25373e-07 
553 1 0.392825 0.0356511 0.0833678 55.845 -8.74831e-07 
554 1 0.428571 0.0357143 0.0416667 55.845 4.51083e-07 
555 1 0.428581 0.0714186 0.0835071 55.845 -3.94074e-07 
556 1 0.464286 0.0714286 0.0416667 55.845 2.65535e-07 
557 1 0.464267 0.107133 0.0834895 55.845 -2.42119e-08 
558 1 0.428559 3.06042e-05 0.0834208 55.845 -9.36945e-07 
559 1 0.464286 0 0.0416667 55.845 7.3524e-07 
560 1 0.464264 0.035763 0.0834469 55.845 -6.20142e-07 
255 1 -0.000104121 0.178565 0.210595 55.845 -7.02803e-07 
257 1 0.0357183 0.21428 0.210675 55.845 -5.14036e-07 
261 1 0.0356916 0.142863 0.210606 55.845 -4.37382e-07 
263 1 0.0713669 0.178587 0.210744 55.845 -5.1428e-07 
265 1 0.107199 0.214239 0.210742 55.845 -7.6847e-07 
273 1 0.107205 0.142875 0.210632 55.845 -5.56753e-07 
357 1 -4.47794e-05 0.178595 0.125967 55.845 8.91721e-07 
358 1 -1.43272e-05 0.214281 0.168802 55.845 -1.31774e-07 
359 1 0.0357417 0.214327 0.126064 55.845 7.69319e-07 
360 1 0.0356622 0.249984 0.168726 55.845 1.5865e-07 
362 1 -8.77345e-05 0.142853 0.168664 55.845 -2.39274e-07 
363 1 0.0357145 0.142866 0.126107 55.845 1.1109e-06 
364 1 0.0356791 0.178535 0.168784 55.845 -2.36395e-07 
365 1 0.0714418 0.178614 0.126028 55.845 6.13218e-07 
366 1 0.0714638 0.214195 0.168814 55.845 -9.44549e-08 
367 1 0.107197 0.21428 0.126044 55.845 6.5667e-07 
368 1 0.107171 0.250009 0.168656 55.845 -1.24024e-07 
374 1 0.0713963 0.142891 0.168694 55.845 1.87573e-07 
375 1 0.107177 0.142819 0.126071 55.845 5.73373e-07 
376 1 0.107104 0.17854 0.168705 55.845 -8.15007e-08 
459 1 0 0.178571 0.0416667 55.845 4.69919e-07 
460 1 -1.0187e-05 0.21427 0.0834048 55.845 -7.76832e-07 
461 1 0.0357143 0.214286 0.0416667 55.845 1.34794e-07 
462 1 0.0356743 0.249981 0.0833768 55.845 -6.07618e-07 
464 1 -4.7144e-05 0.142866 0.0833522 55.845 -5.89385e-07 
465 1 0.0357143 0.142857 0.0416667 55.845 1.74452e-07 
466 1 0.0357465 0.178543 0.0835583 55.845 -7.87085e-07 
467 1 0.0714286 0.178571 0.0416667 55.845 4.44658e-07 
468 1 0.0714633 0.214276 0.0834187 55.845 -6.34389e-07 
469 1 0.107143 0.214286 0.0416667 55.845 -1.85432e-08 
470 1 0.107118 0.250045 0.083384 55.845 -7.50146e-07 
476 1 0.0714151 0.142892 0.0834247 55.845 -4.99619e-07 
477 1 0.107143 0.142857 0.0416667 55.845 2.61937e-07 
478 1 0.107139 0.178549 0.0835214 55.845 -1.50077e-07 
561 1 0 0.214286 0 55.845 -1.63949e-07 
562 1 0.0357143 0.25 0 55.845 -1.94628e-07 
563 1 0 0.142857 0 55.845 -1.13956e-07 
564 1 0.0357143 0.178571 0 55.845 -1.44231e-07 
565 1 0.0714286 0.214286 0 55.845 -3.4349e-07 
566 1 0.107143 0.25 0 55.845 -3.17745e-07 
569 1 0.0714286 0.142857 0 55.845 -1.08351e-07 
570 1 0.107143 0.178571 0 55.845 1.83304e-07 
275 1 0.142873 0.178604 0.210543 55.845 -8.57828e-07 
277 1 0.178584 0.214361 0.210407 55.845 -9.21669e-07 
287 1 0.178526 0.142862 0.210613 55.845 -7.92516e-07 
289 1 0.214292 0.178572 0.210556 55.845 -1.06592e-06 
291 1 0.250028 0.214331 0.210709 55.845 -9.81972e-07 
301 1 0.249963 0.142847 0.210582 55.845 -1.20239e-06 
377 1 0.142856 0.178557 0.125952 55.845 1.63817e-07 
378 1 0.142855 0.214291 0.168557 55.845 1.54107e-07 
379 1 0.178616 0.214306 0.126019 55.845 3.48869e-07 
388 1 0.142782 0.142853 0.168781 55.845 6.49587e-07 
389 1 0.178546 0.142787 0.125883 55.845 2.33877e-07 
390 1 0.178575 0.178583 0.168617 55.845 4.58768e-07 
391 1 0.214309 0.178515 0.12597 55.845 2.16342e-07 
392 1 0.214349 0.214279 0.168691 55.845 2.77049e-07 
393 1 0.250029 0.214226 0.126021 55.845 1.81257e-07 
402 1 0.214243 0.142842 0.168715 55.845 6.67076e-07 
403 1 0.249935 0.142849 0.126111 55.845 5.42695e-07 
404 1 0.250064 0.178596 0.168689 55.845 2.08614e-07 
479 1 0.142857 0.178571 0.0416667 55.845 1.99386e-07 
480 1 0.142854 0.214317 0.0834889 55.845 -6.00333e-07 
481 1 0.178571 0.214286 0.0416667 55.845 1.5133e-07 
490 1 0.142834 0.142834 0.0834151 55.845 -3.8237e-07 
491 1 0.178571 0.142857 0.0416667 55.845 2.10651e-07 
492 1 0.178548 0.178556 0.0834281 55.845 2.27007e-07 
493 1 0.214286 0.178571 0.0416667 55.845 8.82108e-08 
494 1 0.214321 0.214212 0.0834965 55.845 -6.05371e-08 
495 1 0.25 0.214286 0.0416667 55.845 5.84145e-08 
504 1 0.214285 0.142915 0.0834292 55.845 -7.96274e-09 
505 1 0.25 0.142857 0.0416667 55.845 2.4011e-07 
506 1 0.250017 0.178554 0.0833872 55.845 -2.90155e-08 
571 1 0.142857 0.214286 0 55.845 -1.11872e-07 
576 1 0.142857 0.142857 0 55.845 -3.84902e-08 
577 1 0.178571 0.178571 0 55.845 -1.66157e-07 
578 1 0.214286 0.214286 0 55.845 3.7558e-07 
583 1 0.214286 0.142857 0 55.845 1.56884e-07 
584 1 0.25 0.178571 0 55.845 -8.95436e-08 
303 1 0.285679 0.178595 0.21073 55.845 -8.30839e-07 
305 1 0.321448 0.214253 0.210662 55.845 -8.13909e-07 
315 1 0.321385 0.142852 0.210678 55.845 -9.01183e-07 
317 1 0.357147 0.17855 0.21051 55.845 -6.96087e-07 
405 1 0.285695 0.178527 0.126019 55.845 2.44758e-07 
406 1 0.285726 0.214249 0.168806 55.845 -3.65292e-09 
407 1 0.321468 0.214211 0.126034 55.845 4.19919e-07 
416 1 0.285704 0.142781 0.168698 55.845 4.18043e-07 
417 1 0.321468 0.142783 0.126134 55.845 7.47052e-07 
418 1 0.321414 0.178565 0.168745 55.845 7.8192e-07 
419 1 0.357128 0.178541 0.126148 55.845 3.5583e-07 
420 1 0.357161 0.214292 0.168629 55.845 6.12892e-08 
432 1 0.357138 0.142842 0.168752 55.845 4.56594e-07 
507 1 0.285714 0.178571 0.0416667 55.845 6.79259e-08 
508 1 0.285715 0.214227 0.0835085 55.845 -4.12973e-07 
509 1 0.321429 0.214286 0.0416667 55.845 2.69688e-07 
518 1 0.285659 0.142787 0.0834979 55.845 -3.80542e-07 
519 1 0.321429 0.142857 0.0416667 55.845 5.59004e-07 
520 1 0.321368 0.178537 0.0833875 55.845 -4.06426e-07 
521 1 0.357143 0.178571 0.0416667 55.845 8.44611e-08 
522 1 0.357103 0.214317 0.0834095 55.845 -3.25609e-07 
534 1 0.357115 0.142833 0.0835014 55.845 -7.56839e-08 
585 1 0.285714 0.214286 0 55.845 9.20896e-08 
590 1 0.285714 0.142857 0 55.845 -3.23677e-07 
591 1 0.321429 0.178571 0 55.845 -2.64517e-07 
592 1 0.357143 0.214286 0 55.845 -1.5687e-07 
598 1 0.357143 0.142857 0 55.845 -1.17575e-08 
319 1 0.392845 0.214227 0.210641 55.845 -1.14311e-06 
321 1 0.428597 0.249993 0.210618 55.845 -9.48543e-07 
331 1 0.392837 0.14292 0.21059 55.845 -9.2642e-07 
333 1 0.42856 0.17858 0.210725 55.845 -1.0256e-06 
335 1 0.464299 0.214265 0.210536 55.845 -1.03367e-06 
345 1 0.464242 0.142852 0.210646 55.845 -1.02064e-06 
606 1 0.464286 0.178571 0 55.845 9.02239e-08 
421 1 0.392917 0.214266 0.126023 55.845 3.01563e-07 
422 1 0.392881 0.24994 0.168686 55.845 3.11838e-07 
423 1 0.428573 0.250006 0.12608 55.845 3.87555e-07 
433 1 0.392754 0.142805 0.126162 55.845 1.87811e-07 
434 1 0.392882 0.178582 0.168789 55.845 6.45891e-07 
435 1 0.428608 0.178641 0.126087 55.845 -1.52012e-08 
436 1 0.428511 0.214258 0.168753 55.845 1.30788e-07 
437 1 0.464254 0.21428 0.126012 55.845 5.89404e-07 
605 1 0.428571 0.142857 0 55.845 -7.26775e-08 
446 1 0.42852 0.142923 0.168629 55.845 6.54291e-07 
447 1 0.46425 0.142839 0.126051 55.845 5.80801e-08 
448 1 0.464328 0.178528 0.168723 55.845 4.15867e-07 
523 1 0.392857 0.214286 0.0416667 55.845 6.56615e-08 
524 1 0.392844 0.250005 0.0835079 55.845 -3.28294e-07 
525 1 0.428571 0.25 0.0416667 55.845 5.42436e-07 
535 1 0.392857 0.142857 0.0416667 55.845 9.18347e-08 
536 1 0.392795 0.178552 0.0835766 55.845 -4.98376e-07 
537 1 0.428571 0.178571 0.0416667 55.845 -1.13562e-07 
538 1 0.428538 0.21427 0.0834193 55.845 -2.37857e-07 
539 1 0.464286 0.214286 0.0416667 55.845 2.66275e-08 
548 1 0.428441 0.142865 0.0834896 55.845 -6.76231e-08 
549 1 0.464286 0.142857 0.0416667 55.845 3.25182e-07 
550 1 0.464321 0.178568 0.0834808 55.845 -1.37969e-07 
593 1 0.392857 0.25 0 55.845 -5.76295e-08 
599 1 0.392857 0.178571 0 55.845 -2.41839e-07 
600 1 0.428571 0.214286 0 55.845 1.20351e-07 
3 1 6.43023e-05 0.107153 0.463192 55.845 1.84344e-07 
7 1 -1.10502e-05 0.0356864 0.463179 55.845 8.61919e-08 
8 1 0.0357171 0.0714316 0.463304 55.845 8.98001e-08 
9 1 0.0714248 0.107219 0.463237 55.845 2.80746e-07 
13 1 0.0357093 -9.46895e-06 0.463117 55.845 3.67191e-07 
14 1 0.0713798 0.0357015 0.463157 55.845 2.19175e-07 
15 1 0.1071 0.0713636 0.463268 55.845 6.73132e-08 
20 1 0.107107 1.32094e-05 0.463176 55.845 4.10627e-07 
55 1 -3.16273e-05 0.107204 0.380068 55.845 5.9389e-08 
63 1 -6.0652e-05 0.0357318 0.380049 55.845 1.55449e-07 
64 1 1.94497e-06 0.0714977 0.421922 55.845 -4.38293e-07 
65 1 0.0356798 0.0714944 0.380031 55.845 -1.89613e-07 
66 1 0.0357129 0.10726 0.421739 55.845 -6.57563e-07 
67 1 0.0713669 0.10712 0.379945 55.845 1.27655e-07 
74 1 2.34629e-06 -3.82909e-05 0.421773 55.845 -4.7668e-07 
75 1 0.0356659 4.17268e-05 0.379843 55.845 3.20844e-07 
76 1 0.0356421 0.0357312 0.421731 55.845 -2.77099e-07 
77 1 0.0713442 0.0358301 0.380026 55.845 1.85199e-07 
78 1 0.0713576 0.0714638 0.421909 55.845 -6.88084e-07 
79 1 0.107053 0.0714338 0.380112 55.845 -4.06206e-08 
80 1 0.107163 0.107136 0.421995 55.845 -7.5265e-07 
88 1 0.071353 4.55262e-05 0.421695 55.845 -5.79339e-07 
89 1 0.107073 7.69762e-05 0.380066 55.845 1.04531e-07 
90 1 0.107067 0.0357073 0.421776 55.845 -6.84037e-07 
157 1 7.30222e-05 0.107115 0.295259 55.845 1.767e-08 
165 1 2.3562e-05 0.0357682 0.295131 55.845 1.42481e-07 
166 1 8.58686e-06 0.0714261 0.337956 55.845 -1.97807e-07 
167 1 0.0357057 0.0714221 0.295114 55.845 2.85449e-07 
168 1 0.0357367 0.10711 0.337675 55.845 1.5305e-07 
169 1 0.0714167 0.107136 0.295176 55.845 3.34427e-07 
176 1 8.93362e-06 1.36198e-05 0.337953 55.845 -4.51904e-07 
177 1 0.0357494 6.09719e-05 0.295018 55.845 4.36178e-07 
178 1 0.0356982 0.0357757 0.337916 55.845 -1.78099e-07 
179 1 0.0714097 0.0357065 0.295176 55.845 6.89778e-08 
180 1 0.0713485 0.0714521 0.337789 55.845 -2.79186e-07 
181 1 0.107158 0.0714465 0.295202 55.845 -2.35812e-07 
182 1 0.107182 0.107155 0.337989 55.845 -3.10265e-08 
190 1 0.0713793 5.82752e-05 0.337818 55.845 -1.83632e-07 
191 1 0.107057 -6.86905e-06 0.295172 55.845 1.44718e-07 
192 1 0.107086 0.0357176 0.337835 55.845 2.18602e-07 
268 1 3.31129e-05 0.0714912 0.252435 55.845 -9.28986e-08 
270 1 0.0357315 0.107189 0.252601 55.845 1.86311e-07 
278 1 -1.86704e-05 4.53964e-05 0.252699 55.845 -2.13611e-08 
280 1 0.0357486 0.0357292 0.252585 55.845 -8.74281e-08 
282 1 0.0714554 0.0714337 0.252527 55.845 -1.08948e-07 
284 1 0.107132 0.107199 0.252572 55.845 3.27065e-07 
292 1 0.0714119 -1.97354e-05 0.252499 55.845 4.48064e-07 
294 1 0.107134 0.0357341 0.252606 55.845 1.38033e-08 
16 1 0.142849 0.107168 0.463211 55.845 -2.05938e-08 
21 1 0.142789 0.0356716 0.463275 55.845 1.89212e-07 
22 1 0.178557 0.0713806 0.463213 55.845 -5.25966e-08 
23 1 0.214267 0.107184 0.463082 55.845 2.05697e-07 
27 1 0.178546 -2.43232e-05 0.463368 55.845 -1.36097e-08 
28 1 0.214247 0.0357475 0.463231 55.845 6.81195e-08 
29 1 0.250008 0.0714703 0.463252 55.845 5.74406e-08 
81 1 0.142844 0.107125 0.380103 55.845 -9.06976e-08 
91 1 0.14281 0.0357074 0.380049 55.845 -1.90187e-07 
92 1 0.142814 0.0713849 0.421863 55.845 -4.76099e-07 
93 1 0.178499 0.0713816 0.380186 55.845 -3.46987e-08 
94 1 0.178528 0.107116 0.421977 55.845 -5.74115e-07 
95 1 0.214306 0.107214 0.380164 55.845 -3.36805e-08 
102 1 0.142822 -8.09339e-06 0.421849 55.845 -2.56362e-07 
103 1 0.178499 -3.59478e-05 0.380171 55.845 2.24087e-07 
104 1 0.178504 0.0356731 0.421805 55.845 -5.61574e-07 
105 1 0.214241 0.0356767 0.380015 55.845 -2.44768e-08 
106 1 0.214224 0.0714398 0.421998 55.845 -3.57273e-07 
107 1 0.249918 0.0713904 0.380177 55.845 -6.09925e-08 
108 1 0.250036 0.107068 0.421796 55.845 -4.12626e-07 
118 1 0.214185 3.21649e-05 0.421821 55.845 -4.6826e-08 
120 1 0.249923 0.0357545 0.421875 55.845 -6.44754e-07 
183 1 0.142834 0.107167 0.295266 55.845 3.69742e-07 
193 1 0.142851 0.0357336 0.29528 55.845 -2.398e-07 
194 1 0.14286 0.0714198 0.337998 55.845 -2.95814e-07 
195 1 0.178559 0.0714646 0.295247 55.845 -1.51933e-07 
196 1 0.178531 0.107045 0.33809 55.845 -8.68248e-08 
197 1 0.214201 0.107097 0.295283 55.845 4.43166e-08 
204 1 0.142861 5.79497e-05 0.337983 55.845 5.45422e-09 
205 1 0.178572 4.13427e-05 0.295196 55.845 3.48152e-07 
206 1 0.178566 0.0356854 0.337969 55.845 2.46778e-07 
207 1 0.214268 0.0357108 0.295297 55.845 -1.10048e-07 
208 1 0.214203 0.0714483 0.338049 55.845 -8.46456e-08 
209 1 0.250017 0.0714158 0.295367 55.845 -4.88146e-07 
210 1 0.250037 0.107206 0.338116 55.845 3.10848e-07 
220 1 0.214399 2.36015e-05 0.337964 55.845 2.36899e-07 
222 1 0.249985 0.0356621 0.338011 55.845 4.03593e-07 
296 1 0.142799 0.0714046 0.252759 55.845 -2.21098e-07 
298 1 0.178601 0.10717 0.25272 55.845 2.58302e-07 
306 1 0.142805 6.56195e-05 0.252624 55.845 3.04048e-07 
308 1 0.17847 0.0357767 0.252676 55.845 2.57011e-07 
310 1 0.214227 0.071392 0.252754 55.845 1.35385e-07 
312 1 0.24997 0.107113 0.252748 55.845 1.89227e-07 
322 1 0.214269 5.76628e-05 0.252717 55.845 4.1022e-07 
324 1 0.24995 0.0358175 0.252782 55.845 2.33281e-07 
30 1 0.285717 0.10719 0.463085 55.845 3.99357e-07 
35 1 0.249952 9.74424e-05 0.463142 55.845 1.70021e-07 
36 1 0.285745 0.0357441 0.463154 55.845 3.32789e-07 
37 1 0.321465 0.0713922 0.463207 55.845 1.61107e-09 
38 1 0.357129 0.107155 0.463174 55.845 3.93024e-07 
42 1 0.321395 -2.93599e-06 0.463147 55.845 5.13569e-07 
43 1 0.357093 0.0356971 0.463104 55.845 4.98475e-07 
109 1 0.285751 0.107088 0.380039 55.845 -1.65827e-07 
119 1 0.249976 -8.39143e-06 0.38019 55.845 3.85344e-07 
121 1 0.285676 0.0356836 0.380111 55.845 -1.6686e-07 
122 1 0.285668 0.0714537 0.421879 55.845 -6.07764e-07 
123 1 0.321487 0.0713862 0.380041 55.845 -2.68983e-07 
124 1 0.321409 0.107079 0.421818 55.845 -3.57301e-07 
125 1 0.357184 0.107134 0.380022 55.845 1.59661e-07 
133 1 0.321365 1.00436e-05 0.380064 55.845 1.99682e-07 
134 1 0.321374 0.0356828 0.421732 55.845 -5.12649e-07 
135 1 0.357076 0.0357025 0.380011 55.845 -1.17544e-07 
136 1 0.357139 0.0714144 0.421827 55.845 -5.74085e-07 
211 1 0.285734 0.107179 0.295326 55.845 -1.41447e-07 
221 1 0.249974 6.79587e-05 0.29511 55.845 -1.68946e-08 
223 1 0.285635 0.0356794 0.29521 55.845 -2.7304e-07 
224 1 0.285705 0.0714298 0.338049 55.845 -1.7166e-07 
225 1 0.32141 0.0714285 0.295138 55.845 4.26465e-08 
226 1 0.321441 0.10713 0.338009 55.845 2.63851e-07 
227 1 0.357139 0.107066 0.295096 55.845 -1.79845e-07 
235 1 0.321394 -6.18428e-06 0.295129 55.845 2.88931e-08 
236 1 0.321366 0.0356861 0.337923 55.845 9.23563e-08 
237 1 0.357064 0.0358454 0.29517 55.845 -1.21245e-07 
238 1 0.357123 0.0714989 0.337971 55.845 -8.34533e-08 
326 1 0.285655 0.0714908 0.252776 55.845 3.4176e-08 
328 1 0.321424 0.107074 0.252687 55.845 1.30216e-07 
338 1 0.321466 0.0357231 0.252591 55.845 1.6166e-07 
340 1 0.357168 0.0714186 0.252488 55.845 3.34824e-07 
44 1 0.392834 0.0714169 0.463279 55.845 5.09802e-08 
45 1 0.428491 0.107134 0.463239 55.845 4.91037e-07 
47 1 0.392879 2.82842e-05 0.463251 55.845 7.31861e-07 
48 1 0.428582 0.0356968 0.463292 55.845 4.71876e-07 
49 1 0.464291 0.0714295 0.463207 55.845 9.37743e-08 
50 1 0.464291 -3.7545e-05 0.463258 55.845 6.43205e-07 
137 1 0.392857 0.0714097 0.380185 55.845 -2.37172e-07 
138 1 0.392831 0.107188 0.421719 55.845 -4.40893e-07 
139 1 0.428594 0.10718 0.380058 55.845 1.66833e-07 
144 1 0.392867 7.24456e-06 0.380102 55.845 3.68905e-08 
145 1 0.39285 0.0356577 0.421878 55.845 -8.00463e-07 
146 1 0.428567 0.035677 0.380134 55.845 1.84157e-07 
147 1 0.428554 0.0714303 0.421824 55.845 -1.09347e-06 
148 1 0.464263 0.0714493 0.380108 55.845 2.03199e-07 
149 1 0.464271 0.107179 0.421841 55.845 -3.88719e-07 
150 1 0.428626 -2.13211e-05 0.421832 55.845 -7.18614e-07 
151 1 0.464305 -2.50498e-06 0.380051 55.845 4.60699e-07 
152 1 0.464233 0.0357504 0.421914 55.845 -7.19971e-07 
239 1 0.392775 0.0714399 0.29526 55.845 4.29532e-09 
240 1 0.392873 0.107176 0.338043 55.845 2.14808e-07 
241 1 0.428475 0.107159 0.29517 55.845 -2.36513e-07 
246 1 0.392833 4.87653e-05 0.295294 55.845 -1.55875e-07 
247 1 0.392881 0.035741 0.337965 55.845 -1.86557e-07 
248 1 0.428512 0.0356758 0.295113 55.845 -2.51174e-07 
249 1 0.428566 0.0713145 0.338025 55.845 -4.33005e-07 
250 1 0.464271 0.0714311 0.295251 55.845 2.62505e-07 
251 1 0.464268 0.107131 0.337883 55.845 1.11485e-08 
252 1 0.428568 3.45421e-05 0.338043 55.845 9.22284e-08 
253 1 0.464347 -1.19806e-06 0.295093 55.845 1.47174e-07 
254 1 0.464253 0.0356923 0.337902 55.845 1.49826e-08 
342 1 0.39287 0.10717 0.252597 55.845 -1.29625e-08 
349 1 0.392776 0.0357367 0.252511 55.845 9.09082e-08 
351 1 0.428515 0.0714414 0.252745 55.845 2.67309e-07 
353 1 0.464174 0.107093 0.252575 55.845 1.479e-07 
354 1 0.428518 -4.6199e-05 0.252686 55.845 2.94681e-07 
356 1 0.464268 0.0357213 0.252654 55.845 1.54808e-07 
1 1 3.96124e-05 0.178644 0.463159 55.845 3.44314e-07 
2 1 0.035732 0.214236 0.463157 55.845 2.77374e-08 
4 1 0.0357204 0.142878 0.463266 55.845 6.99339e-07 
5 1 0.0714185 0.178526 0.463288 55.845 4.93036e-07 
6 1 0.107128 0.214244 0.463159 55.845 2.20774e-07 
10 1 0.107171 0.142854 0.463237 55.845 7.6374e-07 
51 1 -4.29732e-05 0.178506 0.380023 55.845 1.5783e-07 
52 1 -4.9165e-05 0.214313 0.421844 55.845 -8.99714e-07 
53 1 0.0356884 0.214342 0.380086 55.845 1.94387e-07 
54 1 0.035719 0.249959 0.421843 55.845 -4.44e-07 
56 1 3.62152e-05 0.142829 0.421766 55.845 -6.0477e-07 
57 1 0.0357108 0.142804 0.379845 55.845 2.50806e-07 
58 1 0.0357431 0.178608 0.421598 55.845 -6.99398e-07 
59 1 0.0714046 0.178606 0.380076 55.845 4.81183e-07 
60 1 0.0714112 0.21428 0.421874 55.845 -7.34858e-07 
61 1 0.107129 0.214286 0.379985 55.845 1.43901e-07 
62 1 0.107099 0.249972 0.421807 55.845 -7.18656e-07 
68 1 0.0714256 0.142868 0.421884 55.845 -6.39341e-07 
69 1 0.107116 0.142847 0.380067 55.845 1.21064e-07 
70 1 0.107122 0.178538 0.421744 55.845 -6.49991e-07 
153 1 -1.32087e-05 0.178544 0.295111 55.845 -9.86829e-08 
154 1 4.68889e-05 0.214276 0.338025 55.845 -5.02184e-07 
155 1 0.0357066 0.214265 0.295122 55.845 2.69494e-07 
156 1 0.0357169 0.250064 0.337891 55.845 -3.36583e-08 
158 1 -7.46794e-05 0.142838 0.337914 55.845 2.22393e-07 
159 1 0.0356656 0.142958 0.295171 55.845 2.9508e-07 
160 1 0.0357196 0.178579 0.337849 55.845 3.52316e-08 
161 1 0.0714224 0.178589 0.295114 55.845 1.45364e-07 
162 1 0.071421 0.214289 0.337864 55.845 -2.28768e-07 
163 1 0.1072 0.214307 0.295252 55.845 -5.91934e-08 
164 1 0.10709 0.250013 0.337903 55.845 -3.96503e-09 
170 1 0.0713931 0.142845 0.337828 55.845 -5.18033e-08 
171 1 0.10708 0.142876 0.295233 55.845 7.28063e-08 
172 1 0.107116 0.178594 0.337938 55.845 -2.11389e-07 
256 1 3.60473e-05 0.214299 0.252743 55.845 2.06545e-08 
258 1 0.0357054 0.250009 0.252688 55.845 1.39778e-09 
260 1 -4.41743e-05 0.14289 0.252589 55.845 5.06435e-07 
262 1 0.0356487 0.1785 0.252597 55.845 2.25221e-08 
264 1 0.0714539 0.214296 0.252715 55.845 -3.52642e-08 
266 1 0.107101 0.249975 0.252668 55.845 1.45976e-07 
272 1 0.0713868 0.14283 0.252756 55.845 4.86949e-07 
274 1 0.10717 0.178578 0.252702 55.845 -5.87749e-08 
11 1 0.142813 0.178583 0.463156 55.845 8.40235e-08 
12 1 0.178496 0.214223 0.463211 55.845 3.85987e-07 
17 1 0.178601 0.142876 0.463129 55.845 6.12569e-07 
18 1 0.214216 0.178571 0.463147 55.845 -9.89446e-08 
19 1 0.25003 0.214249 0.463136 55.845 1.84686e-08 
24 1 0.249941 0.142747 0.463142 55.845 4.4757e-07 
71 1 0.142816 0.178563 0.380001 55.845 3.22219e-07 
72 1 0.142829 0.214285 0.421813 55.845 -6.81042e-07 
73 1 0.178628 0.214162 0.379971 55.845 3.81371e-07 
82 1 0.142802 0.142804 0.42181 55.845 -4.96778e-07 
83 1 0.178571 0.142818 0.380022 55.845 4.67366e-07 
84 1 0.178535 0.178482 0.421697 55.845 -6.91491e-07 
85 1 0.21423 0.178637 0.379957 55.845 3.63428e-07 
86 1 0.214311 0.214252 0.421823 55.845 -3.9307e-07 
87 1 0.249954 0.214226 0.380044 55.845 3.68149e-07 
96 1 0.214285 0.142878 0.421899 55.845 -3.09766e-07 
97 1 0.24996 0.142861 0.380102 55.845 3.82777e-07 
98 1 0.250008 0.178508 0.421792 55.845 -7.30357e-07 
173 1 0.142858 0.178523 0.295212 55.845 3.18381e-07 
174 1 0.142867 0.214269 0.337836 55.845 -3.70623e-07 
175 1 0.178596 0.214284 0.295197 55.845 1.73903e-07 
184 1 0.14285 0.142848 0.337918 55.845 -1.92788e-07 
185 1 0.178549 0.142833 0.295199 55.845 4.66713e-07 
186 1 0.178549 0.178513 0.337762 55.845 -1.30194e-07 
187 1 0.214231 0.178503 0.295201 55.845 4.23235e-07 
188 1 0.214265 0.214318 0.337833 55.845 -4.05803e-07 
189 1 0.249978 0.214249 0.295204 55.845 -2.57385e-08 
198 1 0.214208 0.142795 0.338005 55.845 -4.97828e-08 
199 1 0.249968 0.142796 0.295123 55.845 3.81108e-08 
200 1 0.249999 0.178507 0.337885 55.845 -4.20421e-07 
276 1 0.142874 0.214214 0.252618 55.845 -1.03098e-07 
286 1 0.142837 0.14292 0.252745 55.845 1.68083e-07 
288 1 0.178579 0.178531 0.252591 55.845 2.85976e-08 
290 1 0.214288 0.214282 0.25257 55.845 -2.14163e-07 
300 1 0.214315 0.142787 0.252597 55.845 3.26499e-07 
302 1 0.24998 0.178489 0.252608 55.845 2.163e-08 
25 1 0.285689 0.178482 0.463136 55.845 7.6664e-08 
26 1 0.321356 0.214252 0.463132 55.845 1.67336e-07 
31 1 0.321433 0.142821 0.463219 55.845 2.89313e-07 
32 1 0.357044 0.178667 0.463132 55.845 1.59246e-08 
99 1 0.285755 0.178574 0.379987 55.845 1.15193e-07 
100 1 0.285701 0.214311 0.421775 55.845 -9.76661e-07 
101 1 0.321388 0.214252 0.380004 55.845 7.29907e-08 
110 1 0.285678 0.142809 0.421815 55.845 -6.4258e-07 
111 1 0.321438 0.142784 0.380129 55.845 1.12879e-07 
112 1 0.321478 0.178546 0.42177 55.845 -5.47784e-07 
113 1 0.357139 0.178631 0.380072 55.845 -4.93824e-08 
114 1 0.357111 0.214318 0.421832 55.845 -4.8698e-07 
126 1 0.357151 0.142919 0.421818 55.845 -2.61079e-07 
201 1 0.285715 0.178531 0.295182 55.845 7.43089e-08 
202 1 0.285705 0.21427 0.337926 55.845 -4.322e-07 
203 1 0.321467 0.214214 0.295109 55.845 1.08639e-07 
212 1 0.285663 0.142809 0.338083 55.845 -2.55162e-07 
213 1 0.321424 0.142859 0.295202 55.845 1.53036e-07 
214 1 0.321446 0.178484 0.338016 55.845 -4.7269e-07 
215 1 0.357094 0.178478 0.295197 55.845 1.08131e-07 