ITEM: TIMESTEP
1400
ITEM: NUMBER OF ATOMS
5880
ITEM: BOX BOUNDS pp pp ff
-27.9701 27.9701
-27.9701 27.9701
0 34.092
ITEM: ATOMS id type xs ys zs mass q 
259 1 2.66924e-05 0.107222 0.209525 55.845 3.07194e-07 
267 1 -3.53115e-05 0.0357697 0.209604 55.845 3.69836e-07 
269 1 0.0356369 0.0714857 0.209539 55.845 2.75716e-07 
271 1 0.0714324 0.107172 0.209612 55.845 2.73008e-07 
279 1 0.0357572 -9.45871e-06 0.209445 55.845 4.44339e-07 
281 1 0.0713606 0.0357835 0.209479 55.845 4.59836e-07 
283 1 0.107129 0.0714278 0.209494 55.845 4.99919e-07 
293 1 0.107169 -2.04624e-05 0.2095 55.845 4.35647e-07 
361 1 2.70988e-05 0.107138 0.126728 55.845 -4.33482e-07 
369 1 -2.19462e-05 0.0357462 0.126717 55.845 -4.08854e-07 
370 1 7.85327e-06 0.0714829 0.168272 55.845 -2.6522e-08 
371 1 0.035687 0.0714463 0.126726 55.845 -3.46365e-07 
372 1 0.0357192 0.10716 0.168387 55.845 2.42177e-08 
373 1 0.0713961 0.107113 0.126612 55.845 -2.21017e-07 
380 1 6.16809e-05 1.40231e-05 0.168304 55.845 2.52324e-07 
381 1 0.0357074 1.80113e-05 0.126617 55.845 -5.75298e-07 
382 1 0.0357526 0.0357128 0.168305 55.845 -3.4546e-09 
383 1 0.0714305 0.0357503 0.126649 55.845 -3.40333e-07 
384 1 0.0714652 0.0714652 0.16816 55.845 1.8337e-07 
385 1 0.10713 0.0714157 0.1266 55.845 -2.09244e-07 
386 1 0.107114 0.107149 0.168285 55.845 4.30233e-07 
394 1 0.0714253 4.84498e-05 0.168148 55.845 1.01125e-07 
395 1 0.107169 -1.48747e-05 0.126713 55.845 -4.97381e-07 
396 1 0.107105 0.0357435 0.168165 55.845 1.96884e-07 
463 1 0 0.107143 0.0416667 55.845 3.58105e-07 
471 1 0 0.0357143 0.0416667 55.845 6.92499e-08 
472 1 4.04823e-05 0.071498 0.0840047 55.845 3.75537e-07 
473 1 0.0357143 0.0714286 0.0416667 55.845 1.85884e-07 
474 1 0.0356988 0.107213 0.0840809 55.845 2.14174e-07 
475 1 0.0714286 0.107143 0.0416667 55.845 1.10852e-07 
482 1 8.68848e-06 1.15062e-05 0.0840744 55.845 1.86469e-07 
483 1 0.0357143 0 0.0416667 55.845 1.11088e-07 
484 1 0.0357232 0.0357453 0.083944 55.845 2.92216e-07 
485 1 0.0714286 0.0357143 0.0416667 55.845 -2.28677e-08 
486 1 0.0713889 0.0714231 0.0838949 55.845 3.52567e-07 
487 1 0.107143 0.0714286 0.0416667 55.845 9.28379e-08 
488 1 0.107065 0.107137 0.083987 55.845 2.75131e-07 
496 1 0.07147 -5.64077e-06 0.0839477 55.845 1.39242e-08 
497 1 0.107143 0 0.0416667 55.845 -3.50858e-08 
498 1 0.107162 0.0357569 0.0839954 55.845 2.26775e-07 
567 1 0 0.0714286 0 55.845 -6.1946e-08 
568 1 0.0357143 0.107143 0 55.845 -1.28683e-07 
572 1 0 0 0 55.845 -1.19175e-07 
573 1 0.0357143 0.0357143 0 55.845 -7.82393e-08 
574 1 0.0714286 0.0714286 0 55.845 -1.78453e-07 
575 1 0.107143 0.107143 0 55.845 3.5304e-08 
579 1 0.0714286 0 0 55.845 -1.32314e-07 
580 1 0.107143 0.0357143 0 55.845 -2.03829e-07 
285 1 0.142823 0.107072 0.209471 55.845 3.93605e-07 
295 1 0.14279 0.0357086 0.20951 55.845 3.7802e-07 
297 1 0.178518 0.0713523 0.209425 55.845 4.38088e-07 
299 1 0.214285 0.10709 0.209544 55.845 2.72446e-07 
307 1 0.178615 -1.07329e-05 0.209463 55.845 3.47766e-07 
309 1 0.214297 0.0356993 0.209435 55.845 2.71003e-07 
311 1 0.249987 0.0714517 0.209432 55.845 1.5888e-07 
387 1 0.142882 0.107114 0.126546 55.845 -3.42514e-07 
397 1 0.14287 0.0356778 0.126757 55.845 -3.44379e-07 
398 1 0.142802 0.0714209 0.168233 55.845 3.72401e-07 
399 1 0.17858 0.0714004 0.126674 55.845 -4.83348e-07 
400 1 0.178521 0.107154 0.168317 55.845 1.34375e-07 
401 1 0.214246 0.107071 0.12674 55.845 -6.84541e-07 
408 1 0.14285 3.62314e-05 0.168256 55.845 1.41419e-07 
409 1 0.178561 4.20219e-05 0.126766 55.845 -5.06576e-07 
410 1 0.178565 0.0357124 0.16829 55.845 -8.59096e-08 
411 1 0.214323 0.0356843 0.126561 55.845 -4.42433e-07 
412 1 0.214267 0.0714205 0.168219 55.845 -2.29083e-07 
413 1 0.250027 0.071466 0.126659 55.845 -4.10799e-07 
414 1 0.250023 0.107166 0.168203 55.845 -5.79096e-08 
424 1 0.214336 1.52374e-05 0.168232 55.845 4.96475e-08 
426 1 0.250005 0.0357749 0.168194 55.845 -1.91444e-08 
489 1 0.142857 0.107143 0.0416667 55.845 2.03603e-07 
499 1 0.142857 0.0357143 0.0416667 55.845 1.361e-07 
500 1 0.142888 0.0713566 0.0840025 55.845 1.70192e-07 
501 1 0.178571 0.0714286 0.0416667 55.845 2.13358e-07 
502 1 0.178614 0.107143 0.0840519 55.845 -5.68789e-08 
503 1 0.214286 0.107143 0.0416667 55.845 1.7788e-07 
510 1 0.142845 1.71281e-05 0.0839836 55.845 2.55869e-07 
511 1 0.178571 0 0.0416667 55.845 3.41516e-07 
512 1 0.178552 0.0356939 0.0840219 55.845 4.27583e-07 
513 1 0.214286 0.0357143 0.0416667 55.845 7.83848e-08 
514 1 0.214271 0.0714405 0.0839805 55.845 2.1108e-07 
515 1 0.25 0.0714286 0.0416667 55.845 1.73477e-07 
516 1 0.249953 0.107125 0.0840188 55.845 1.55257e-07 
526 1 0.21427 -5.63656e-06 0.0840067 55.845 1.8642e-07 
528 1 0.25006 0.0356786 0.084049 55.845 2.84789e-07 
581 1 0.142857 0.0714286 0 55.845 -2.2734e-08 
582 1 0.178571 0.107143 0 55.845 6.62172e-08 
586 1 0.142857 0 0 55.845 -1.45096e-07 
587 1 0.178571 0.0357143 0 55.845 -1.56262e-07 
588 1 0.214286 0.0714286 0 55.845 -4.10264e-07 
589 1 0.25 0.107143 0 55.845 -1.11667e-07 
594 1 0.214286 0 0 55.845 -2.04593e-07 
595 1 0.25 0.0357143 0 55.845 -3.66428e-07 
313 1 0.285681 0.107189 0.209387 55.845 3.23031e-07 
323 1 0.250036 0.00014913 0.209422 55.845 4.53971e-07 
325 1 0.285678 0.0356598 0.209517 55.845 3.68898e-07 
327 1 0.321428 0.0714229 0.209602 55.845 5.43222e-07 
329 1 0.357173 0.107098 0.209411 55.845 4.28031e-07 
337 1 0.321413 -2.67461e-05 0.209477 55.845 3.172e-07 
339 1 0.357199 0.0356833 0.209545 55.845 2.75461e-07 
415 1 0.28569 0.107147 0.126582 55.845 -3.7307e-07 
425 1 0.249975 9.90049e-06 0.126625 55.845 -6.73079e-07 
427 1 0.285743 0.0357816 0.126626 55.845 -4.20508e-07 
428 1 0.285717 0.071438 0.168329 55.845 1.7292e-07 
429 1 0.32136 0.0714296 0.126729 55.845 -1.1755e-07 
430 1 0.321438 0.107148 0.168261 55.845 2.4357e-07 
431 1 0.357121 0.107124 0.126739 55.845 -3.35192e-07 
439 1 0.32138 -3.0501e-05 0.126636 55.845 -5.65433e-07 
440 1 0.321417 0.035703 0.168359 55.845 1.80602e-07 
441 1 0.357055 0.0357233 0.126667 55.845 -3.67048e-07 
442 1 0.357088 0.071387 0.168212 55.845 2.31142e-07 
517 1 0.285714 0.107143 0.0416667 55.845 2.31553e-07 
527 1 0.25 0 0.0416667 55.845 1.21436e-08 
529 1 0.285714 0.0357143 0.0416667 55.845 1.35949e-07 
530 1 0.28575 0.071441 0.0839566 55.845 5.36436e-07 
531 1 0.321429 0.0714286 0.0416667 55.845 2.1657e-07 
532 1 0.321455 0.107137 0.0839579 55.845 1.12079e-07 
533 1 0.357143 0.107143 0.0416667 55.845 8.22112e-08 
603 1 0.357143 0.0714286 0 55.845 -1.50846e-07 
541 1 0.321429 0 0.0416667 55.845 1.1226e-07 
542 1 0.321421 0.0357587 0.0840636 55.845 1.37343e-07 
543 1 0.357143 0.0357143 0.0416667 55.845 4.32391e-08 
544 1 0.357151 0.0714732 0.0840059 55.845 1.29475e-07 
602 1 0.321429 0.0357143 0 55.845 1.06583e-07 
596 1 0.285714 0.0714286 0 55.845 -1.13485e-07 
597 1 0.321429 0.107143 0 55.845 1.53569e-07 
612 1 0.464286 0.0357143 0 55.845 -3.22737e-08 
611 1 0.428571 0 0 55.845 -1.67124e-07 
610 1 0.464286 0.107143 0 55.845 -1.31974e-07 
609 1 0.428571 0.0714286 0 55.845 -2.05573e-07 
608 1 0.392857 0.0357143 0 55.845 -2.48236e-07 
341 1 0.392816 0.0714519 0.209599 55.845 3.23379e-07 
343 1 0.428568 0.107145 0.209483 55.845 2.25758e-07 
348 1 0.392903 -8.3495e-05 0.209375 55.845 1.73119e-07 
350 1 0.428548 0.0357129 0.20958 55.845 2.26254e-07 
352 1 0.46431 0.0713976 0.209472 55.845 2.86089e-07 
355 1 0.464209 -1.16485e-05 0.209368 55.845 5.35911e-07 
443 1 0.392835 0.0713688 0.126671 55.845 -3.92872e-07 
444 1 0.392839 0.107117 0.168219 55.845 1.63703e-07 
445 1 0.428554 0.10714 0.126749 55.845 -2.75297e-07 
604 1 0.392857 0.107143 0 55.845 -1.71329e-07 
450 1 0.392847 7.36821e-05 0.126641 55.845 -6.05823e-07 
451 1 0.39285 0.0357719 0.168374 55.845 -5.95568e-08 
452 1 0.428626 0.0357601 0.12656 55.845 -6.69789e-07 
453 1 0.428568 0.0714417 0.168276 55.845 1.11349e-07 
454 1 0.46428 0.0714544 0.126642 55.845 -3.37386e-07 
455 1 0.464276 0.10718 0.168352 55.845 1.56716e-07 
456 1 0.428521 6.06754e-05 0.168103 55.845 -1.9037e-07 
457 1 0.464257 -2.88691e-05 0.126618 55.845 -6.77817e-07 
458 1 0.464287 0.0357241 0.168277 55.845 1.24669e-08 
545 1 0.392857 0.0714286 0.0416667 55.845 8.83932e-08 
546 1 0.392869 0.107133 0.0839954 55.845 9.71689e-08 
547 1 0.428571 0.107143 0.0416667 55.845 1.36709e-07 
552 1 0.392857 0 0.0416667 55.845 1.0085e-07 
553 1 0.39284 0.035744 0.0840231 55.845 1.37876e-07 
554 1 0.428571 0.0357143 0.0416667 55.845 1.85874e-07 
555 1 0.42858 0.0714445 0.0840197 55.845 2.77238e-07 
556 1 0.464286 0.0714286 0.0416667 55.845 3.27741e-07 
557 1 0.464251 0.10717 0.084017 55.845 3.43782e-07 
558 1 0.428474 -3.32363e-05 0.0838999 55.845 1.1496e-07 
559 1 0.464286 0 0.0416667 55.845 2.71169e-07 
560 1 0.464351 0.0357017 0.0839567 55.845 2.93574e-07 
255 1 -5.10228e-05 0.178563 0.209496 55.845 4.41194e-07 
257 1 0.0356741 0.214252 0.20944 55.845 4.71273e-07 
261 1 0.0356508 0.142835 0.209584 55.845 4.09431e-07 
263 1 0.0713775 0.178586 0.209461 55.845 3.68878e-07 
265 1 0.107093 0.214278 0.209489 55.845 3.6894e-07 
273 1 0.107107 0.142826 0.209589 55.845 3.11174e-07 
357 1 1.27357e-05 0.178586 0.126591 55.845 -3.10627e-07 
358 1 2.7198e-05 0.214282 0.168181 55.845 2.17456e-07 
359 1 0.035731 0.21423 0.126699 55.845 -4.96025e-07 
360 1 0.0356722 0.249966 0.168232 55.845 2.12004e-07 
362 1 3.0636e-05 0.142867 0.16832 55.845 2.58412e-08 
363 1 0.0357067 0.142889 0.126604 55.845 -4.94197e-07 
364 1 0.0356539 0.178537 0.168238 55.845 9.49883e-08 
365 1 0.0714257 0.178531 0.12668 55.845 -4.83418e-07 
366 1 0.071462 0.214265 0.168196 55.845 2.25385e-07 
367 1 0.107177 0.214271 0.126614 55.845 -2.93289e-07 
368 1 0.107171 0.249977 0.168261 55.845 1.85255e-07 
374 1 0.0714133 0.142882 0.168336 55.845 1.1536e-07 
375 1 0.107105 0.142871 0.126607 55.845 -3.41896e-07 
376 1 0.107165 0.178564 0.168224 55.845 1.19275e-07 
459 1 0 0.178571 0.0416667 55.845 9.7254e-08 
460 1 -1.76957e-05 0.214313 0.0840014 55.845 7.97839e-08 
461 1 0.0357143 0.214286 0.0416667 55.845 -3.83753e-08 
462 1 0.0357793 0.249934 0.083965 55.845 -6.19366e-08 
464 1 -5.30426e-05 0.14287 0.0839577 55.845 1.35292e-07 
465 1 0.0357143 0.142857 0.0416667 55.845 9.63464e-09 
466 1 0.0357138 0.178592 0.0839452 55.845 -6.46736e-08 
467 1 0.0714286 0.178571 0.0416667 55.845 5.16998e-08 
468 1 0.0714566 0.214278 0.0840827 55.845 -1.00333e-07 
469 1 0.107143 0.214286 0.0416667 55.845 -5.61478e-08 
470 1 0.107149 0.249993 0.0839296 55.845 -1.29844e-08 
476 1 0.0713879 0.142797 0.0839917 55.845 1.4404e-07 
477 1 0.107143 0.142857 0.0416667 55.845 1.47086e-07 
478 1 0.107106 0.178585 0.083984 55.845 2.64597e-07 
561 1 0 0.214286 0 55.845 -3.88056e-08 
562 1 0.0357143 0.25 0 55.845 -6.95442e-08 
563 1 0 0.142857 0 55.845 4.65745e-08 
564 1 0.0357143 0.178571 0 55.845 -5.54339e-08 
565 1 0.0714286 0.214286 0 55.845 -6.45528e-08 
566 1 0.107143 0.25 0 55.845 -1.8023e-07 
569 1 0.0714286 0.142857 0 55.845 2.24385e-08 
570 1 0.107143 0.178571 0 55.845 -1.26518e-07 
275 1 0.142863 0.178557 0.209625 55.845 1.95974e-07 
277 1 0.178527 0.214307 0.20955 55.845 4.31013e-07 
287 1 0.178613 0.142866 0.209511 55.845 4.33175e-07 
289 1 0.214294 0.178553 0.209431 55.845 5.26379e-07 
291 1 0.250018 0.214305 0.209432 55.845 4.42437e-07 
301 1 0.250062 0.142875 0.2094 55.845 4.85795e-07 
377 1 0.142897 0.178594 0.126602 55.845 -2.51788e-07 
378 1 0.142884 0.214273 0.16829 55.845 1.88008e-07 
379 1 0.178579 0.214245 0.126688 55.845 -2.72347e-07 
388 1 0.142818 0.142835 0.168288 55.845 3.06976e-07 
389 1 0.178547 0.142853 0.126716 55.845 -5.31605e-07 
390 1 0.178557 0.178582 0.168405 55.845 1.30983e-07 
391 1 0.214283 0.178493 0.126665 55.845 -4.49154e-07 
392 1 0.214261 0.214285 0.168235 55.845 2.07948e-07 
393 1 0.250037 0.214269 0.126588 55.845 -5.04982e-07 
402 1 0.214277 0.142835 0.168218 55.845 6.81829e-08 
403 1 0.249998 0.142852 0.12662 55.845 -7.12492e-07 
404 1 0.25002 0.178546 0.168234 55.845 2.00256e-07 
479 1 0.142857 0.178571 0.0416667 55.845 4.34722e-08 
480 1 0.142832 0.214295 0.0840217 55.845 1.69352e-07 
481 1 0.178571 0.214286 0.0416667 55.845 1.08413e-07 
490 1 0.14288 0.142887 0.0839874 55.845 1.6244e-07 
491 1 0.178571 0.142857 0.0416667 55.845 1.59326e-07 
492 1 0.178583 0.178585 0.0840889 55.845 3.26818e-07 
493 1 0.214286 0.178571 0.0416667 55.845 7.80271e-08 
494 1 0.214293 0.214244 0.084013 55.845 1.62296e-07 
495 1 0.25 0.214286 0.0416667 55.845 1.38525e-07 
504 1 0.21426 0.14282 0.0838986 55.845 -4.33022e-08 
505 1 0.25 0.142857 0.0416667 55.845 6.05919e-08 
506 1 0.249992 0.17856 0.0838206 55.845 2.81786e-08 
571 1 0.142857 0.214286 0 55.845 -3.72449e-07 
576 1 0.142857 0.142857 0 55.845 1.62278e-07 
577 1 0.178571 0.178571 0 55.845 -1.46682e-07 
578 1 0.214286 0.214286 0 55.845 -2.79108e-08 
583 1 0.214286 0.142857 0 55.845 1.30952e-07 
584 1 0.25 0.178571 0 55.845 1.11587e-07 
303 1 0.285771 0.178635 0.209567 55.845 4.23496e-07 
305 1 0.321446 0.214293 0.209445 55.845 1.59896e-07 
315 1 0.321442 0.142892 0.209492 55.845 3.92993e-07 
317 1 0.357144 0.178595 0.209469 55.845 1.24655e-07 
405 1 0.285689 0.17856 0.126621 55.845 -6.71343e-07 
406 1 0.285739 0.214327 0.168192 55.845 1.80173e-07 
407 1 0.321375 0.214305 0.126636 55.845 -4.42402e-07 
416 1 0.285729 0.142901 0.168107 55.845 1.6041e-07 
417 1 0.321422 0.142825 0.126568 55.845 -6.22466e-07 
418 1 0.321428 0.178525 0.168178 55.845 7.18059e-08 
419 1 0.357128 0.178507 0.126592 55.845 -4.47696e-07 
420 1 0.357199 0.214223 0.168134 55.845 2.12799e-07 
432 1 0.357194 0.142876 0.168348 55.845 -7.39587e-08 
507 1 0.285714 0.178571 0.0416667 55.845 8.26467e-09 
508 1 0.285707 0.214318 0.0838554 55.845 1.85332e-07 
509 1 0.321429 0.214286 0.0416667 55.845 1.11103e-07 
518 1 0.28569 0.142817 0.083853 55.845 2.22508e-08 
519 1 0.321429 0.142857 0.0416667 55.845 1.00747e-07 
520 1 0.321393 0.178608 0.0839498 55.845 1.55136e-08 
521 1 0.357143 0.178571 0.0416667 55.845 2.8934e-08 
522 1 0.357138 0.214294 0.0840448 55.845 1.09988e-07 
534 1 0.357186 0.142832 0.0839764 55.845 -3.8923e-08 
585 1 0.285714 0.214286 0 55.845 1.67767e-07 
590 1 0.285714 0.142857 0 55.845 2.0997e-07 
591 1 0.321429 0.178571 0 55.845 1.90703e-07 
592 1 0.357143 0.214286 0 55.845 -2.06523e-07 
598 1 0.357143 0.142857 0 55.845 1.97795e-07 
319 1 0.392872 0.214318 0.209539 55.845 3.53166e-07 
321 1 0.428574 0.250023 0.209433 55.845 5.43887e-07 
331 1 0.392902 0.142894 0.209627 55.845 2.86473e-07 
333 1 0.428556 0.17862 0.209603 55.845 1.97833e-07 
335 1 0.46424 0.214308 0.209461 55.845 2.69478e-07 
345 1 0.464313 0.14278 0.209522 55.845 2.15135e-07 
606 1 0.464286 0.178571 0 55.845 -1.34548e-07 
421 1 0.392867 0.214279 0.126703 55.845 -2.29706e-07 
422 1 0.392849 0.25003 0.168208 55.845 2.09865e-07 
423 1 0.428576 0.250006 0.12665 55.845 -5.47298e-07 
433 1 0.392814 0.142907 0.126665 55.845 -3.828e-07 
434 1 0.392846 0.178603 0.168291 55.845 1.85613e-07 
435 1 0.428516 0.17859 0.126708 55.845 -2.65188e-07 
436 1 0.428539 0.214375 0.168307 55.845 3.03169e-07 
437 1 0.464306 0.214303 0.126603 55.845 -3.00342e-07 
605 1 0.428571 0.142857 0 55.845 -2.25289e-07 
446 1 0.428513 0.142914 0.168228 55.845 1.61258e-07 
447 1 0.464254 0.142827 0.126664 55.845 -3.01994e-07 
448 1 0.464246 0.178559 0.168208 55.845 1.62663e-07 
523 1 0.392857 0.214286 0.0416667 55.845 4.67945e-08 
524 1 0.392913 0.250012 0.0839736 55.845 1.02402e-07 
525 1 0.428571 0.25 0.0416667 55.845 1.47445e-07 
535 1 0.392857 0.142857 0.0416667 55.845 2.00375e-08 
536 1 0.392837 0.178609 0.0840201 55.845 2.37168e-07 
537 1 0.428571 0.178571 0.0416667 55.845 1.5939e-07 
538 1 0.42855 0.214298 0.0839998 55.845 2.46056e-07 
539 1 0.464286 0.214286 0.0416667 55.845 2.71642e-07 
548 1 0.428544 0.142871 0.0839656 55.845 3.08754e-07 
549 1 0.464286 0.142857 0.0416667 55.845 1.87036e-07 
550 1 0.46427 0.178607 0.0840427 55.845 3.68801e-07 
593 1 0.392857 0.25 0 55.845 -5.01606e-08 
599 1 0.392857 0.178571 0 55.845 -9.2456e-08 
600 1 0.428571 0.214286 0 55.845 3.44603e-08 
3 1 -5.66293e-06 0.107171 0.460059 55.845 -2.99148e-07 
7 1 1.76435e-05 0.0356671 0.460031 55.845 -1.82688e-07 
8 1 0.035675 0.0713997 0.459979 55.845 -3.42577e-07 
9 1 0.0714115 0.107183 0.459982 55.845 -1.78466e-07 
13 1 0.035742 1.98199e-05 0.460016 55.845 9.66333e-08 
14 1 0.071464 0.0356294 0.460012 55.845 -2.87314e-07 
15 1 0.107158 0.0713623 0.460054 55.845 -4.25849e-07 
20 1 0.107145 -7.38324e-05 0.460037 55.845 -3.18818e-07 
55 1 -3.78867e-05 0.107127 0.376459 55.845 2.27575e-07 
63 1 1.89555e-05 0.0356552 0.376377 55.845 1.37585e-07 
64 1 -2.04858e-05 0.0713881 0.417973 55.845 1.71761e-07 
65 1 0.035673 0.0714223 0.376475 55.845 2.77447e-07 
66 1 0.0357369 0.107146 0.418019 55.845 1.66355e-07 
67 1 0.0714262 0.107163 0.376472 55.845 4.45462e-07 
74 1 3.68396e-05 -2.07029e-05 0.417962 55.845 4.63205e-07 
75 1 0.0357018 -4.70595e-05 0.376405 55.845 2.81714e-07 
76 1 0.0357238 0.035684 0.417934 55.845 3.55848e-07 
77 1 0.0714223 0.0357295 0.376536 55.845 3.26715e-07 
78 1 0.0714628 0.0714351 0.417975 55.845 3.24382e-07 
79 1 0.107134 0.0714285 0.376334 55.845 5.27689e-07 
80 1 0.107164 0.10714 0.417987 55.845 4.834e-07 
88 1 0.0714353 -7.15376e-05 0.417929 55.845 3.10857e-07 
89 1 0.107129 8.94561e-06 0.376449 55.845 3.17747e-07 
90 1 0.107185 0.0356482 0.418065 55.845 4.04654e-07 
157 1 -3.25489e-05 0.107213 0.293148 55.845 1.19693e-07 
165 1 5.2325e-06 0.0356786 0.292976 55.845 -1.43319e-07 
166 1 1.34399e-06 0.0714383 0.334853 55.845 -4.78598e-07 
167 1 0.0357447 0.0714599 0.293106 55.845 6.13217e-08 
168 1 0.0357184 0.107191 0.334901 55.845 -2.27638e-07 
169 1 0.0714643 0.107179 0.293129 55.845 1.66573e-07 
176 1 1.15444e-06 2.81485e-06 0.334707 55.845 -5.79666e-07 
177 1 0.0357945 7.56031e-05 0.292967 55.845 -9.89573e-08 
178 1 0.035712 0.0357294 0.334856 55.845 -3.72452e-07 
179 1 0.0714199 0.0357406 0.293027 55.845 8.87298e-08 
180 1 0.0714329 0.0714037 0.334787 55.845 -1.30626e-07 
181 1 0.107091 0.0713943 0.293065 55.845 -4.06692e-08 
182 1 0.107168 0.107196 0.334803 55.845 -4.30446e-07 
190 1 0.0714627 3.81178e-05 0.334831 55.845 -4.31367e-07 
191 1 0.107154 -2.22725e-05 0.292965 55.845 1.21391e-07 
192 1 0.10716 0.0356836 0.334802 55.845 -2.73478e-07 
268 1 -6.06314e-05 0.0714182 0.25103 55.845 -3.23124e-07 
270 1 0.0356806 0.107201 0.250963 55.845 -2.81902e-07 
278 1 7.95534e-05 -1.4208e-06 0.250797 55.845 -3.07473e-07 
280 1 0.0357098 0.035775 0.250838 55.845 -3.37809e-07 
282 1 0.071379 0.0714717 0.250889 55.845 -3.4649e-07 
284 1 0.107181 0.107179 0.250951 55.845 -2.73759e-07 
292 1 0.0714629 -2.00792e-06 0.250799 55.845 -3.72575e-07 
294 1 0.107118 0.0357101 0.250833 55.845 -2.35554e-07 
16 1 0.142875 0.107174 0.460063 55.845 -1.67542e-07 
21 1 0.142857 0.0357404 0.460086 55.845 -3.8509e-07 
22 1 0.178638 0.0714092 0.460076 55.845 -3.93124e-07 
23 1 0.214242 0.107117 0.460176 55.845 -1.98523e-07 
27 1 0.178551 -4.22008e-05 0.460151 55.845 -1.27721e-07 
28 1 0.214323 0.0357049 0.460123 55.845 -2.50949e-07 
29 1 0.250065 0.071431 0.460032 55.845 -2.9981e-07 
81 1 0.142869 0.107145 0.376522 55.845 3.03492e-07 
91 1 0.142842 0.0357465 0.376497 55.845 2.89259e-07 
92 1 0.142847 0.0713633 0.418024 55.845 3.34381e-07 
93 1 0.178593 0.0713978 0.376501 55.845 4.08991e-08 
94 1 0.178549 0.107129 0.418028 55.845 2.70392e-07 
95 1 0.214244 0.107208 0.376498 55.845 1.00835e-07 
102 1 0.142825 -6.89644e-05 0.418061 55.845 1.70489e-07 
103 1 0.178578 -4.87413e-06 0.376491 55.845 2.68546e-07 
104 1 0.178582 0.0356503 0.417996 55.845 3.47847e-07 
105 1 0.214226 0.0357368 0.37645 55.845 3.95783e-08 
106 1 0.214306 0.0714497 0.418059 55.845 1.93374e-07 
107 1 0.250014 0.0714593 0.376477 55.845 1.63144e-07 
108 1 0.250002 0.107205 0.418008 55.845 2.78709e-07 
118 1 0.214281 -9.45766e-06 0.418059 55.845 4.0699e-07 
120 1 0.250012 0.0357028 0.417989 55.845 3.60524e-07 
183 1 0.142857 0.107165 0.293155 55.845 -1.15262e-07 
193 1 0.142834 0.0357661 0.292951 55.845 5.6686e-08 
194 1 0.142957 0.0713963 0.33487 55.845 -5.76261e-07 
195 1 0.178579 0.0714092 0.293066 55.845 -1.74745e-07 
196 1 0.17863 0.107122 0.334786 55.845 -6.12168e-07 
197 1 0.214334 0.107166 0.292971 55.845 7.62808e-08 
204 1 0.142874 2.22643e-05 0.334833 55.845 -2.85709e-07 
205 1 0.178579 -2.12758e-05 0.29314 55.845 1.07639e-07 
206 1 0.178566 0.0357343 0.33479 55.845 -3.09477e-07 
207 1 0.21424 0.0356998 0.293034 55.845 1.42869e-07 
208 1 0.214233 0.0714672 0.334748 55.845 -4.2897e-07 
209 1 0.250042 0.0714375 0.292923 55.845 3.243e-08 
210 1 0.249968 0.107138 0.334805 55.845 -4.11975e-07 
220 1 0.214329 -7.88425e-07 0.33485 55.845 -2.65231e-07 
222 1 0.249972 0.0357644 0.334899 55.845 -1.76858e-07 
296 1 0.142796 0.0714301 0.250887 55.845 -2.45637e-07 
298 1 0.178571 0.107127 0.25103 55.845 -1.20062e-07 
306 1 0.142941 -4.09086e-05 0.250967 55.845 -1.393e-07 
308 1 0.178593 0.0356953 0.25097 55.845 -1.8812e-07 
310 1 0.214333 0.0714002 0.250949 55.845 -1.95679e-07 
312 1 0.250041 0.107174 0.250753 55.845 -1.48006e-07 
322 1 0.214256 -1.22564e-05 0.250966 55.845 -7.09484e-08 
324 1 0.24998 0.0357258 0.250963 55.845 -1.43629e-07 
30 1 0.285759 0.107199 0.460102 55.845 5.77744e-09 
35 1 0.249997 -1.73354e-06 0.460005 55.845 1.23555e-08 
36 1 0.285714 0.0357341 0.460235 55.845 -1.72077e-07 
37 1 0.321423 0.0714384 0.460168 55.845 -2.64616e-07 
38 1 0.357156 0.107116 0.46024 55.845 1.45775e-08 
42 1 0.321416 -2.23451e-05 0.460115 55.845 -2.3249e-07 
43 1 0.35716 0.0357488 0.460141 55.845 -2.30171e-07 
109 1 0.285696 0.107133 0.376388 55.845 1.95149e-07 
119 1 0.250002 1.1665e-05 0.37638 55.845 3.06492e-07 
121 1 0.285734 0.0357194 0.376477 55.845 2.35527e-07 
122 1 0.285768 0.0714931 0.418078 55.845 3.23515e-07 
123 1 0.321423 0.0714046 0.376419 55.845 3.01878e-07 
124 1 0.32144 0.107105 0.418086 55.845 3.45003e-07 
125 1 0.357088 0.107192 0.376519 55.845 3.18299e-07 
133 1 0.321386 3.28597e-05 0.376507 55.845 3.17759e-07 
134 1 0.321456 0.0356717 0.41813 55.845 3.92851e-07 
135 1 0.357164 0.0356381 0.376467 55.845 2.43778e-07 
136 1 0.357147 0.0714367 0.417976 55.845 4.5649e-07 
211 1 0.285729 0.107209 0.292908 55.845 9.15691e-08 
221 1 0.249963 3.24947e-05 0.293045 55.845 1.5299e-07 
223 1 0.285669 0.0356887 0.293039 55.845 -8.61181e-08 
224 1 0.285668 0.0714958 0.334636 55.845 -3.18905e-07 
225 1 0.321425 0.0714732 0.292952 55.845 -1.50418e-07 
226 1 0.321415 0.107142 0.334808 55.845 -2.78933e-07 
227 1 0.357077 0.107152 0.293076 55.845 3.43512e-08 
235 1 0.3215 -1.45106e-05 0.293051 55.845 -3.57053e-07 
236 1 0.321416 0.0357423 0.334777 55.845 -3.65843e-07 
237 1 0.357172 0.0356783 0.293062 55.845 -3.44622e-07 
238 1 0.357155 0.0714322 0.334795 55.845 -4.29886e-07 
326 1 0.285713 0.0714612 0.250777 55.845 -3.10821e-07 
328 1 0.321443 0.107137 0.250824 55.845 -2.32429e-07 
338 1 0.321479 0.0357382 0.250903 55.845 -5.11273e-07 
340 1 0.357211 0.0714281 0.250971 55.845 -3.39561e-07 
44 1 0.392848 0.0714329 0.460068 55.845 -1.34883e-07 
45 1 0.428567 0.107164 0.460063 55.845 -2.06799e-07 
47 1 0.392869 -6.57983e-06 0.46012 55.845 -1.64769e-07 
48 1 0.428601 0.0357032 0.460136 55.845 -2.29563e-07 
49 1 0.464317 0.0714429 0.460047 55.845 -6.16954e-07 
50 1 0.464269 4.772e-06 0.46015 55.845 -6.20655e-08 
137 1 0.392878 0.0714163 0.376538 55.845 3.44594e-07 
138 1 0.392878 0.107098 0.418053 55.845 3.39498e-07 
139 1 0.42852 0.107234 0.376512 55.845 1.7819e-07 
144 1 0.392869 -8.16153e-05 0.376553 55.845 1.28447e-07 
145 1 0.392902 0.0357191 0.417988 55.845 4.81073e-07 
146 1 0.428582 0.0357354 0.376422 55.845 3.78077e-07 
147 1 0.428591 0.0714474 0.417971 55.845 3.59049e-07 
148 1 0.464378 0.0714413 0.376483 55.845 3.42402e-07 
149 1 0.464335 0.107175 0.418019 55.845 1.54046e-07 
150 1 0.428584 8.63252e-05 0.418082 55.845 4.11746e-07 
151 1 0.464296 -5.631e-05 0.376411 55.845 1.04087e-07 
152 1 0.464279 0.0356873 0.417995 55.845 2.90193e-07 
239 1 0.392843 0.0714063 0.29323 55.845 -1.10731e-07 
240 1 0.39285 0.107187 0.334851 55.845 -3.22423e-07 
241 1 0.428562 0.107116 0.292962 55.845 -2.07603e-08 
246 1 0.392831 2.70537e-05 0.293008 55.845 -1.14128e-07 
247 1 0.392831 0.0357109 0.334943 55.845 -3.48476e-07 
248 1 0.428555 0.0356858 0.293166 55.845 1.83662e-07 
249 1 0.428596 0.0714632 0.334847 55.845 -2.41152e-07 
250 1 0.464217 0.0714188 0.292986 55.845 -2.95408e-09 
251 1 0.464201 0.107178 0.334788 55.845 -2.34604e-07 
252 1 0.428553 -3.20989e-06 0.334941 55.845 -2.78828e-07 
253 1 0.464298 4.0294e-06 0.292979 55.845 2.7882e-07 
254 1 0.464338 0.0357074 0.334875 55.845 -1.71293e-07 
342 1 0.392856 0.107127 0.250918 55.845 -2.6859e-07 
349 1 0.392924 0.0357023 0.250899 55.845 -3.07982e-07 
351 1 0.428545 0.0713544 0.251033 55.845 -1.91419e-07 
353 1 0.464231 0.107103 0.250917 55.845 -3.74815e-07 
354 1 0.428581 -1.15815e-06 0.250888 55.845 1.38018e-07 
356 1 0.464258 0.035616 0.250984 55.845 5.19689e-08 
1 1 -8.02795e-06 0.178603 0.460018 55.845 -3.24856e-07 
2 1 0.0357324 0.214263 0.460002 55.845 -5.89397e-07 
4 1 0.0356517 0.14283 0.460041 55.845 -1.46519e-07 
5 1 0.0714054 0.178611 0.46017 55.845 -2.40156e-07 
6 1 0.107189 0.214269 0.460201 55.845 -4.05371e-07 
10 1 0.107117 0.142839 0.459996 55.845 -3.69111e-08 
51 1 -3.17628e-05 0.178637 0.376374 55.845 4.39774e-07 
52 1 -1.96308e-05 0.214229 0.417953 55.845 2.73252e-07 
53 1 0.0357639 0.214278 0.376426 55.845 2.56523e-07 
54 1 0.0356818 0.249993 0.418041 55.845 2.18035e-07 
56 1 8.66215e-06 0.142915 0.417951 55.845 2.52632e-07 
57 1 0.0357009 0.142899 0.376441 55.845 2.17382e-07 
58 1 0.0356845 0.17858 0.418012 55.845 1.56669e-07 
59 1 0.0714164 0.178632 0.376433 55.845 1.39996e-07 
60 1 0.0715638 0.214279 0.418099 55.845 -1.01264e-08 
61 1 0.107159 0.214253 0.376469 55.845 9.17275e-08 
62 1 0.107196 0.25 0.418099 55.845 1.26839e-08 
68 1 0.0713929 0.142878 0.417999 55.845 1.80583e-07 
69 1 0.107173 0.142919 0.376566 55.845 4.95626e-07 
70 1 0.107064 0.178576 0.418074 55.845 1.72294e-07 
153 1 -5.7452e-06 0.178589 0.292988 55.845 6.6941e-08 
154 1 5.14055e-06 0.214282 0.334725 55.845 -2.4917e-07 
155 1 0.0357287 0.214297 0.292918 55.845 -5.20712e-08 
156 1 0.0356809 0.250036 0.334844 55.845 -4.19362e-07 
158 1 7.55375e-06 0.142911 0.33479 55.845 -1.82706e-07 
159 1 0.0357296 0.142845 0.293136 55.845 2.19344e-07 
160 1 0.0357064 0.178556 0.334852 55.845 -1.79753e-07 
161 1 0.0714279 0.178587 0.293103 55.845 8.3569e-08 
162 1 0.0714184 0.214364 0.334778 55.845 -4.86191e-07 
163 1 0.107133 0.2143 0.29312 55.845 -4.14562e-08 
164 1 0.107138 0.24999 0.334837 55.845 -5.71914e-07 
170 1 0.0714622 0.142899 0.334797 55.845 -1.60925e-07 
171 1 0.107155 0.142846 0.293021 55.845 1.32608e-07 
172 1 0.10717 0.178608 0.334847 55.845 -1.28709e-07 
256 1 4.11372e-06 0.214283 0.250833 55.845 -2.8191e-07 
258 1 0.0356748 0.249963 0.250874 55.845 -1.58312e-07 
260 1 4.33048e-06 0.142925 0.250971 55.845 -1.07705e-07 
262 1 0.035713 0.178536 0.250933 55.845 -2.6788e-07 
264 1 0.0714477 0.214247 0.250906 55.845 -4.05553e-07 
266 1 0.107151 0.249952 0.250894 55.845 -1.37432e-07 
272 1 0.0714455 0.142882 0.250888 55.845 -2.70313e-07 
274 1 0.107093 0.178552 0.250844 55.845 -4.25471e-07 
11 1 0.142854 0.178527 0.460102 55.845 -3.03017e-07 
12 1 0.17853 0.214264 0.460188 55.845 -1.04973e-07 
17 1 0.178582 0.142827 0.460044 55.845 -2.11634e-07 
18 1 0.214248 0.178611 0.459988 55.845 -2.41115e-07 
19 1 0.25 0.21432 0.46007 55.845 -1.36664e-07 
24 1 0.250002 0.142889 0.459977 55.845 -2.06015e-08 
71 1 0.142841 0.178527 0.37642 55.845 3.31449e-07 
72 1 0.142851 0.214286 0.418044 55.845 7.58239e-08 
73 1 0.17863 0.214303 0.37656 55.845 1.006e-07 
82 1 0.142886 0.142894 0.417993 55.845 3.34582e-07 
83 1 0.178579 0.142843 0.376491 55.845 2.6937e-07 
84 1 0.178546 0.178578 0.417954 55.845 3.28635e-07 
85 1 0.214333 0.178599 0.37645 55.845 3.07731e-07 
86 1 0.214297 0.214319 0.417938 55.845 4.22597e-07 
87 1 0.249993 0.214296 0.376413 55.845 3.33167e-07 
96 1 0.214248 0.142869 0.418052 55.845 1.54316e-07 
97 1 0.249986 0.142831 0.37647 55.845 2.3378e-07 
98 1 0.250018 0.178587 0.418067 55.845 2.78022e-07 
173 1 0.14284 0.178676 0.29301 55.845 2.61257e-08 
174 1 0.142857 0.214292 0.334919 55.845 -3.95132e-07 
175 1 0.17858 0.214355 0.293106 55.845 -1.12634e-07 
184 1 0.142844 0.142876 0.334822 55.845 -1.98271e-07 
185 1 0.17864 0.142861 0.29309 55.845 -1.73147e-08 
186 1 0.178578 0.178539 0.334816 55.845 -1.8326e-07 
187 1 0.214326 0.178552 0.293073 55.845 7.257e-08 
188 1 0.214288 0.214286 0.334713 55.845 -4.29362e-07 
189 1 0.250099 0.214301 0.292941 55.845 9.82926e-08 
198 1 0.214337 0.142852 0.334762 55.845 -2.9448e-07 
199 1 0.250039 0.142915 0.292916 55.845 1.17034e-07 
200 1 0.249981 0.178541 0.334724 55.845 -4.02918e-07 
276 1 0.142792 0.214266 0.250938 55.845 -3.57076e-07 
286 1 0.142922 0.142811 0.250885 55.845 -3.29971e-07 
288 1 0.178546 0.178629 0.250938 55.845 -3.57906e-07 
290 1 0.21428 0.214297 0.250727 55.845 -1.49806e-07 
300 1 0.214347 0.14291 0.250806 55.845 1.63164e-08 
302 1 0.24999 0.178634 0.250804 55.845 1.64701e-08 
25 1 0.285673 0.178638 0.460037 55.845 -1.94736e-07 
26 1 0.321462 0.214309 0.460145 55.845 -5.00616e-07 
31 1 0.321336 0.142833 0.460038 55.845 -1.32027e-07 
32 1 0.357108 0.178603 0.460089 55.845 -4.77726e-07 
99 1 0.28569 0.178632 0.37643 55.845 1.31958e-07 
100 1 0.285666 0.21428 0.418009 55.845 2.97273e-07 
101 1 0.32142 0.214317 0.37644 55.845 2.49365e-07 
110 1 0.285704 0.142854 0.41794 55.845 2.579e-07 
111 1 0.321389 0.142817 0.376358 55.845 3.48501e-07 
112 1 0.321375 0.178529 0.418006 55.845 1.41182e-07 
113 1 0.357113 0.178577 0.376353 55.845 4.72959e-07 
114 1 0.357138 0.214307 0.417954 55.845 2.03249e-07 
126 1 0.357062 0.142873 0.418069 55.845 3.30142e-07 
201 1 0.285713 0.178535 0.292931 55.845 -2.82479e-08 
202 1 0.285704 0.214292 0.334842 55.845 -4.52176e-07 
203 1 0.321437 0.214286 0.292968 55.845 -9.27539e-08 
212 1 0.285645 0.142853 0.334732 55.845 -4.13468e-07 
213 1 0.321437 0.142862 0.29311 55.845 8.10059e-09 
214 1 0.321403 0.178604 0.334813 55.845 -2.80548e-07 
215 1 0.357151 0.178539 0.29304 55.845 -2.32359e-08 
216 1 0.357156 0.214314 0.334746 55.845 -1.76459e-07 