ITEM: TIMESTEP
3800
ITEM: NUMBER OF ATOMS
5880
ITEM: BOX BOUNDS pp pp ff
-27.996 27.996
-27.996 27.996
0 34.092
ITEM: ATOMS id type xs ys zs mass q 
259 1 -7.0762e-05 0.107177 0.208957 55.845 -2.34888e-08 
267 1 -5.98005e-05 0.0357623 0.208887 55.845 -8.31715e-08 
269 1 0.0357268 0.0714016 0.208958 55.845 1.29127e-07 
271 1 0.0713973 0.107184 0.208885 55.845 1.40437e-07 
279 1 0.035656 5.01807e-05 0.208829 55.845 -1.03059e-07 
281 1 0.071406 0.0357457 0.20898 55.845 -1.73907e-07 
283 1 0.107009 0.0714312 0.208813 55.845 -1.71006e-07 
293 1 0.107102 -1.17245e-05 0.208865 55.845 -2.55165e-07 
361 1 1.51673e-05 0.107071 0.125695 55.845 -9.35249e-08 
369 1 -4.20839e-05 0.035688 0.12552 55.845 1.85902e-07 
370 1 9.8455e-05 0.0714305 0.167273 55.845 2.35053e-07 
371 1 0.0357482 0.0714333 0.125413 55.845 -1.32723e-07 
372 1 0.035659 0.107134 0.167345 55.845 1.81476e-07 
373 1 0.0714458 0.107156 0.125522 55.845 -2.55019e-07 
380 1 -0.000115234 2.24023e-05 0.167265 55.845 1.91281e-07 
381 1 0.0356596 -4.35001e-05 0.125612 55.845 -7.53458e-08 
382 1 0.0357116 0.0357231 0.16716 55.845 2.36569e-07 
383 1 0.0713902 0.0357375 0.125622 55.845 3.86711e-08 
384 1 0.0713168 0.0715047 0.167243 55.845 9.7751e-08 
385 1 0.107068 0.0714161 0.12547 55.845 -1.02342e-07 
386 1 0.107146 0.107144 0.167103 55.845 -1.41009e-07 
394 1 0.0713839 1.63756e-05 0.167179 55.845 1.96387e-08 
395 1 0.107112 3.90023e-05 0.125557 55.845 -1.87826e-07 
396 1 0.107121 0.035755 0.167204 55.845 2.57512e-07 
463 1 0 0.107143 0.0416667 55.845 -6.11362e-08 
471 1 0 0.0357143 0.0416667 55.845 -9.35896e-08 
472 1 1.3247e-05 0.0714331 0.0842423 55.845 1.36307e-07 
473 1 0.0357143 0.0714286 0.0416667 55.845 -4.59001e-07 
474 1 0.0357376 0.107161 0.0841948 55.845 -3.63405e-07 
475 1 0.0714286 0.107143 0.0416667 55.845 -4.11411e-07 
482 1 1.22573e-05 -3.38451e-05 0.0841676 55.845 -9.51326e-08 
483 1 0.0357143 0 0.0416667 55.845 -2.03977e-07 
484 1 0.0357069 0.0356901 0.0842259 55.845 -1.13517e-07 
485 1 0.0714286 0.0357143 0.0416667 55.845 -2.148e-07 
486 1 0.0714725 0.0714312 0.0841635 55.845 -2.04361e-07 
487 1 0.107143 0.0714286 0.0416667 55.845 3.73207e-08 
488 1 0.107164 0.107068 0.0842255 55.845 -1.66548e-07 
496 1 0.0713733 1.92465e-05 0.0842786 55.845 -4.15035e-08 
497 1 0.107143 0 0.0416667 55.845 -2.9662e-07 
498 1 0.107128 0.0355944 0.0842137 55.845 8.87595e-08 
567 1 0 0.0714286 0 55.845 7.56366e-07 
568 1 0.0357143 0.107143 0 55.845 3.10697e-07 
572 1 0 0 0 55.845 4.0165e-07 
573 1 0.0357143 0.0357143 0 55.845 2.31061e-07 
574 1 0.0714286 0.0714286 0 55.845 2.46213e-07 
575 1 0.107143 0.107143 0 55.845 7.11291e-07 
579 1 0.0714286 0 0 55.845 4.24236e-07 
580 1 0.107143 0.0357143 0 55.845 3.78631e-07 
285 1 0.142757 0.107211 0.209002 55.845 5.19634e-08 
295 1 0.14282 0.0356527 0.208984 55.845 -2.52095e-08 
297 1 0.17852 0.0714429 0.208944 55.845 7.70153e-08 
299 1 0.214212 0.107221 0.20896 55.845 -1.07044e-07 
307 1 0.178572 -1.05313e-05 0.208774 55.845 -6.75177e-08 
309 1 0.214249 0.0357762 0.208833 55.845 8.99069e-08 
311 1 0.25003 0.0714539 0.208943 55.845 -6.64534e-08 
387 1 0.142847 0.107147 0.125469 55.845 -4.16037e-07 
397 1 0.142892 0.03572 0.125494 55.845 3.18142e-08 
398 1 0.142802 0.0714365 0.167188 55.845 1.19588e-07 
399 1 0.178525 0.0715446 0.125424 55.845 -2.00704e-07 
400 1 0.17855 0.107194 0.167306 55.845 -1.09943e-07 
401 1 0.214262 0.107191 0.125503 55.845 -9.18857e-08 
408 1 0.14283 5.80636e-06 0.167217 55.845 3.13739e-07 
409 1 0.178578 -4.11386e-05 0.125342 55.845 -7.0746e-08 
410 1 0.178544 0.0357524 0.167051 55.845 3.23438e-07 
411 1 0.214259 0.035798 0.125415 55.845 -1.20302e-07 
412 1 0.214301 0.0714757 0.167159 55.845 1.8549e-07 
413 1 0.249966 0.0714638 0.125346 55.845 -5.54129e-08 
414 1 0.249964 0.107174 0.167124 55.845 3.2951e-08 
424 1 0.214304 7.09473e-06 0.167074 55.845 -4.54117e-08 
426 1 0.24993 0.0357393 0.167259 55.845 -2.41998e-07 
489 1 0.142857 0.107143 0.0416667 55.845 -5.98581e-08 
499 1 0.142857 0.0357143 0.0416667 55.845 -3.39095e-07 
500 1 0.142799 0.0713819 0.0841209 55.845 -2.40149e-07 
501 1 0.178571 0.0714286 0.0416667 55.845 -3.02925e-07 
502 1 0.178574 0.107234 0.0841846 55.845 -2.33069e-07 
503 1 0.214286 0.107143 0.0416667 55.845 -3.73913e-08 
510 1 0.142842 2.21356e-05 0.0841832 55.845 -1.94051e-07 
511 1 0.178571 0 0.0416667 55.845 -1.65362e-07 
512 1 0.178555 0.0357657 0.0840351 55.845 -3.14368e-07 
513 1 0.214286 0.0357143 0.0416667 55.845 -2.62334e-07 
514 1 0.214335 0.0713928 0.0841345 55.845 -9.64485e-08 
515 1 0.25 0.0714286 0.0416667 55.845 -1.46059e-07 
516 1 0.250059 0.10715 0.084086 55.845 -1.40996e-07 
526 1 0.214271 1.07088e-06 0.0840887 55.845 -7.31372e-09 
528 1 0.250055 0.0357629 0.0842328 55.845 1.81478e-08 
581 1 0.142857 0.0714286 0 55.845 5.82228e-07 
582 1 0.178571 0.107143 0 55.845 7.05393e-07 
586 1 0.142857 0 0 55.845 2.44157e-07 
587 1 0.178571 0.0357143 0 55.845 1.56331e-07 
588 1 0.214286 0.0714286 0 55.845 3.34766e-07 
589 1 0.25 0.107143 0 55.845 3.39665e-07 
594 1 0.214286 0 0 55.845 6.82042e-07 
595 1 0.25 0.0357143 0 55.845 2.81413e-07 
313 1 0.285678 0.107133 0.208871 55.845 -7.41539e-08 
323 1 0.249919 1.06057e-05 0.208766 55.845 -2.97942e-07 
325 1 0.28569 0.0358189 0.208825 55.845 -2.10412e-07 
327 1 0.321452 0.0715189 0.208908 55.845 -5.4881e-08 
329 1 0.357204 0.107173 0.208832 55.845 -2.28722e-07 
337 1 0.321422 -2.31979e-05 0.208883 55.845 1.02143e-07 
339 1 0.357224 0.0357347 0.208955 55.845 2.84277e-07 
415 1 0.285805 0.107152 0.12555 55.845 -1.64108e-07 
425 1 0.250005 9.40077e-05 0.125416 55.845 -3.98347e-07 
427 1 0.285759 0.0358031 0.125417 55.845 -1.11232e-07 
428 1 0.285724 0.0714918 0.167079 55.845 -1.67387e-08 
429 1 0.321472 0.0715379 0.125552 55.845 -2.52153e-07 
430 1 0.321479 0.107216 0.167186 55.845 -1.66802e-07 
431 1 0.357114 0.107216 0.125454 55.845 -3.34731e-07 
439 1 0.321346 -3.76734e-06 0.125508 55.845 -2.708e-08 
440 1 0.321437 0.0357769 0.167168 55.845 1.62098e-07 
441 1 0.3572 0.0357895 0.125545 55.845 1.03305e-07 
442 1 0.357138 0.0715174 0.167156 55.845 6.022e-08 
517 1 0.285714 0.107143 0.0416667 55.845 -4.08502e-07 
527 1 0.25 0 0.0416667 55.845 -1.02598e-07 
529 1 0.285714 0.0357143 0.0416667 55.845 -1.78324e-07 
530 1 0.285666 0.0715065 0.0841751 55.845 -1.07851e-07 
531 1 0.321429 0.0714286 0.0416667 55.845 -2.58807e-08 
532 1 0.32139 0.107155 0.0842276 55.845 -3.58036e-07 
533 1 0.357143 0.107143 0.0416667 55.845 1.36003e-07 
603 1 0.357143 0.0714286 0 55.845 6.88765e-07 
541 1 0.321429 0 0.0416667 55.845 -2.90743e-07 
542 1 0.321458 0.0357911 0.0842277 55.845 -1.31738e-07 
543 1 0.357143 0.0357143 0.0416667 55.845 -1.84907e-07 
544 1 0.357117 0.0714988 0.0840841 55.845 -2.30394e-07 
602 1 0.321429 0.0357143 0 55.845 4.12606e-07 
596 1 0.285714 0.0714286 0 55.845 2.71539e-07 
597 1 0.321429 0.107143 0 55.845 4.25699e-07 
612 1 0.464286 0.0357143 0 55.845 6.11773e-07 
611 1 0.428571 0 0 55.845 4.58745e-07 
610 1 0.464286 0.107143 0 55.845 4.25508e-07 
609 1 0.428571 0.0714286 0 55.845 4.11928e-07 
608 1 0.392857 0.0357143 0 55.845 3.50385e-07 
341 1 0.392931 0.0714919 0.20888 55.845 6.38084e-08 
343 1 0.428589 0.107157 0.208882 55.845 -1.83936e-07 
348 1 0.392877 -2.07001e-05 0.208637 55.845 -1.38101e-07 
350 1 0.428608 0.0357252 0.208873 55.845 5.09449e-08 
352 1 0.464353 0.0714999 0.208929 55.845 4.42768e-08 
355 1 0.464331 6.23335e-06 0.208739 55.845 -2.37076e-07 
443 1 0.39279 0.0715022 0.125485 55.845 1.33431e-07 
444 1 0.392883 0.107154 0.167054 55.845 -1.3957e-07 
445 1 0.428633 0.107166 0.125332 55.845 2.23851e-08 
604 1 0.392857 0.107143 0 55.845 5.5074e-07 
450 1 0.392885 -3.02678e-05 0.125449 55.845 1.27003e-08 
451 1 0.392861 0.0357583 0.167058 55.845 2.75809e-07 
452 1 0.428577 0.0357242 0.1254 55.845 1.05454e-07 
453 1 0.428606 0.0713758 0.167215 55.845 2.75489e-07 
454 1 0.464311 0.0713994 0.125499 55.845 1.56192e-08 
455 1 0.464305 0.107258 0.167038 55.845 2.27034e-07 
456 1 0.428641 -6.42618e-07 0.167071 55.845 -2.28138e-07 
457 1 0.464334 5.33414e-06 0.125401 55.845 -1.87053e-07 
458 1 0.464304 0.0357464 0.167172 55.845 -1.18354e-07 
545 1 0.392857 0.0714286 0.0416667 55.845 -1.05503e-07 
546 1 0.392889 0.107127 0.0842367 55.845 -3.2685e-08 
547 1 0.428571 0.107143 0.0416667 55.845 -2.50771e-07 
552 1 0.392857 0 0.0416667 55.845 -1.33157e-07 
553 1 0.392804 0.035695 0.0840965 55.845 -2.24697e-07 
554 1 0.428571 0.0357143 0.0416667 55.845 -1.64606e-07 
555 1 0.42858 0.0713811 0.0841978 55.845 -1.19911e-07 
556 1 0.464286 0.0714286 0.0416667 55.845 -4.19426e-08 
557 1 0.464313 0.107151 0.0841949 55.845 -7.46212e-08 
558 1 0.428534 -3.61536e-05 0.0842593 55.845 -3.62505e-08 
559 1 0.464286 0 0.0416667 55.845 -5.58688e-08 
560 1 0.464349 0.0356509 0.0841503 55.845 -2.75086e-08 
255 1 -1.29798e-05 0.178568 0.208955 55.845 2.40281e-08 
257 1 0.0357194 0.214352 0.208911 55.845 3.1522e-08 
261 1 0.0356445 0.142911 0.209047 55.845 1.08057e-07 
263 1 0.071302 0.17854 0.208853 55.845 -3.57692e-07 
265 1 0.107131 0.214224 0.208856 55.845 -1.4141e-07 
273 1 0.107046 0.142872 0.208879 55.845 -2.71254e-07 
357 1 -6.81088e-06 0.178578 0.125597 55.845 -6.9306e-08 
358 1 -4.35898e-05 0.21429 0.167213 55.845 2.62488e-07 
359 1 0.0356537 0.214273 0.125397 55.845 -1.86416e-07 
360 1 0.0355978 0.250081 0.167121 55.845 1.69492e-07 
362 1 1.97607e-05 0.142808 0.167151 55.845 2.3389e-07 
363 1 0.0357677 0.1429 0.125614 55.845 3.8037e-08 
364 1 0.035654 0.17857 0.167265 55.845 2.08062e-07 
365 1 0.0713716 0.178622 0.125482 55.845 3.11634e-08 
366 1 0.07142 0.214342 0.167207 55.845 -6.22763e-08 
367 1 0.107077 0.214243 0.12549 55.845 -2.12817e-07 
368 1 0.107074 0.249997 0.167179 55.845 -1.742e-07 
374 1 0.0714424 0.142822 0.167157 55.845 2.80599e-08 
375 1 0.107194 0.142874 0.125514 55.845 -1.96324e-08 
376 1 0.107071 0.178559 0.167164 55.845 9.96068e-08 
459 1 0 0.178571 0.0416667 55.845 -3.15201e-07 
460 1 2.1134e-06 0.21431 0.0841286 55.845 -2.28208e-07 
461 1 0.0357143 0.214286 0.0416667 55.845 -3.05232e-07 
462 1 0.0357401 0.250012 0.0841054 55.845 -1.219e-07 
464 1 3.59981e-06 0.142784 0.0841981 55.845 -6.57772e-08 
465 1 0.0357143 0.142857 0.0416667 55.845 -3.45698e-07 
466 1 0.0357136 0.178517 0.0841137 55.845 -2.59028e-08 
467 1 0.0714286 0.178571 0.0416667 55.845 -1.78773e-07 
468 1 0.0713379 0.214322 0.0842321 55.845 -9.73118e-08 
469 1 0.107143 0.214286 0.0416667 55.845 -5.98817e-08 
470 1 0.107115 0.25 0.084292 55.845 -2.30976e-07 
476 1 0.0714149 0.14282 0.0842746 55.845 4.83688e-08 
477 1 0.107143 0.142857 0.0416667 55.845 -7.00111e-08 
478 1 0.107117 0.178555 0.0841249 55.845 1.53654e-07 
561 1 0 0.214286 0 55.845 3.60419e-07 
562 1 0.0357143 0.25 0 55.845 3.67326e-07 
563 1 0 0.142857 0 55.845 5.98128e-07 
564 1 0.0357143 0.178571 0 55.845 2.97054e-07 
565 1 0.0714286 0.214286 0 55.845 4.98692e-07 
566 1 0.107143 0.25 0 55.845 7.9619e-07 
569 1 0.0714286 0.142857 0 55.845 2.50113e-07 
570 1 0.107143 0.178571 0 55.845 1.00932e-07 
275 1 0.142808 0.17857 0.208887 55.845 2.21647e-07 
277 1 0.178511 0.214342 0.208876 55.845 1.35652e-07 
287 1 0.17844 0.14293 0.20893 55.845 5.80582e-08 
289 1 0.214259 0.178647 0.208951 55.845 -8.06749e-08 
291 1 0.249971 0.214243 0.208848 55.845 -1.14832e-07 
301 1 0.249943 0.142887 0.208811 55.845 -2.40411e-07 
377 1 0.14285 0.178535 0.12547 55.845 1.51029e-07 
378 1 0.142752 0.214296 0.167135 55.845 1.5004e-07 
379 1 0.178551 0.21428 0.125507 55.845 -1.11057e-07 
388 1 0.142866 0.142799 0.166981 55.845 1.38206e-07 
389 1 0.178511 0.142837 0.125529 55.845 -2.35694e-07 
390 1 0.178499 0.178623 0.167196 55.845 5.93512e-07 
391 1 0.21421 0.178544 0.125445 55.845 -2.34979e-07 
392 1 0.214326 0.214236 0.167163 55.845 2.43506e-08 
393 1 0.250015 0.214269 0.125386 55.845 -2.88536e-07 
402 1 0.214209 0.142871 0.167233 55.845 5.53416e-08 
403 1 0.250006 0.142801 0.125487 55.845 -2.61834e-07 
404 1 0.250003 0.178549 0.16711 55.845 1.42325e-08 
479 1 0.142857 0.178571 0.0416667 55.845 -4.77456e-07 
480 1 0.142814 0.214255 0.084228 55.845 -2.53311e-07 
481 1 0.178571 0.214286 0.0416667 55.845 -4.38512e-07 
490 1 0.142864 0.142825 0.0840503 55.845 -3.76693e-08 
491 1 0.178571 0.142857 0.0416667 55.845 -1.70687e-07 
492 1 0.178593 0.178609 0.0841663 55.845 -1.79514e-08 
493 1 0.214286 0.178571 0.0416667 55.845 -2.09587e-07 
494 1 0.214281 0.214275 0.0841388 55.845 -2.613e-07 
495 1 0.25 0.214286 0.0416667 55.845 3.24365e-08 
504 1 0.214254 0.142864 0.0842026 55.845 1.18592e-08 
505 1 0.25 0.142857 0.0416667 55.845 -2.59599e-07 
506 1 0.24998 0.178483 0.0840783 55.845 4.77951e-08 
571 1 0.142857 0.214286 0 55.845 1.56269e-07 
576 1 0.142857 0.142857 0 55.845 2.44397e-07 
577 1 0.178571 0.178571 0 55.845 -5.55967e-08 
578 1 0.214286 0.214286 0 55.845 4.16814e-07 
583 1 0.214286 0.142857 0 55.845 5.25043e-07 
584 1 0.25 0.178571 0 55.845 4.51116e-07 
303 1 0.285723 0.178564 0.208899 55.845 6.32585e-08 
305 1 0.321396 0.214327 0.209055 55.845 9.08367e-08 
315 1 0.321452 0.142904 0.208839 55.845 -2.89907e-08 
317 1 0.357142 0.17854 0.208915 55.845 9.66783e-08 
405 1 0.285752 0.178499 0.125446 55.845 -6.86049e-08 
406 1 0.28578 0.214234 0.167199 55.845 2.39092e-07 
407 1 0.32143 0.214211 0.125532 55.845 -2.31961e-08 
416 1 0.285763 0.142845 0.167034 55.845 2.81763e-07 
417 1 0.321445 0.142874 0.125347 55.845 -1.63846e-07 
418 1 0.321391 0.17857 0.167228 55.845 4.62578e-07 
419 1 0.357168 0.178619 0.125496 55.845 -9.5978e-08 
420 1 0.357103 0.214311 0.167051 55.845 1.23973e-07 
432 1 0.357203 0.14288 0.167097 55.845 -4.76211e-08 
507 1 0.285714 0.178571 0.0416667 55.845 -2.01684e-07 
508 1 0.285678 0.214224 0.0841382 55.845 2.58246e-07 
509 1 0.321429 0.214286 0.0416667 55.845 -1.25346e-07 
518 1 0.28569 0.142896 0.0840558 55.845 -1.96678e-07 
519 1 0.321429 0.142857 0.0416667 55.845 -3.37384e-07 
520 1 0.321488 0.178591 0.0841062 55.845 2.60507e-08 
521 1 0.357143 0.178571 0.0416667 55.845 -1.3445e-07 
522 1 0.357123 0.214307 0.0839483 55.845 -1.7037e-07 
534 1 0.357148 0.142881 0.084159 55.845 1.22455e-08 
585 1 0.285714 0.214286 0 55.845 5.1389e-07 
590 1 0.285714 0.142857 0 55.845 8.15611e-08 
591 1 0.321429 0.178571 0 55.845 2.12715e-07 
592 1 0.357143 0.214286 0 55.845 4.09931e-07 
598 1 0.357143 0.142857 0 55.845 5.42094e-07 
319 1 0.392813 0.214302 0.208921 55.845 -3.60138e-08 
321 1 0.428535 0.249944 0.208904 55.845 -3.6342e-08 
331 1 0.392886 0.142879 0.208841 55.845 -1.70564e-07 
333 1 0.428651 0.178628 0.208977 55.845 -3.19714e-07 
335 1 0.464215 0.214246 0.208904 55.845 -5.61187e-08 
345 1 0.464343 0.142851 0.208968 55.845 -1.45435e-07 
606 1 0.464286 0.178571 0 55.845 4.16494e-07 
421 1 0.392831 0.214329 0.125403 55.845 -1.6504e-07 
422 1 0.39283 0.249921 0.167176 55.845 2.60109e-07 
423 1 0.428597 0.25005 0.125484 55.845 2.15925e-07 
433 1 0.392886 0.142853 0.125459 55.845 -1.04754e-07 
434 1 0.392929 0.178587 0.167098 55.845 -1.33578e-07 
435 1 0.428496 0.178523 0.125516 55.845 -2.97883e-07 
436 1 0.428557 0.214278 0.167112 55.845 9.15457e-08 
437 1 0.464232 0.214205 0.125532 55.845 -4.28092e-08 
605 1 0.428571 0.142857 0 55.845 2.61946e-07 
446 1 0.428638 0.142911 0.167067 55.845 -1.1555e-07 
447 1 0.464336 0.142953 0.125599 55.845 -1.54549e-07 
448 1 0.464262 0.178525 0.167252 55.845 6.67218e-08 
523 1 0.392857 0.214286 0.0416667 55.845 -1.6404e-07 
524 1 0.392806 0.249951 0.084213 55.845 3.01303e-08 
525 1 0.428571 0.25 0.0416667 55.845 -1.91158e-07 
535 1 0.392857 0.142857 0.0416667 55.845 -5.41603e-08 
536 1 0.392881 0.178616 0.0840914 55.845 1.57252e-07 
537 1 0.428571 0.178571 0.0416667 55.845 -2.45927e-07 
538 1 0.428546 0.214336 0.0842111 55.845 2.21026e-07 
539 1 0.464286 0.214286 0.0416667 55.845 -1.87916e-07 
548 1 0.428559 0.142902 0.0841069 55.845 -1.22632e-07 
549 1 0.464286 0.142857 0.0416667 55.845 -3.39723e-07 
550 1 0.464249 0.17855 0.0842384 55.845 3.14626e-08 
593 1 0.392857 0.25 0 55.845 3.48777e-07 
599 1 0.392857 0.178571 0 55.845 5.51891e-07 
600 1 0.428571 0.214286 0 55.845 3.37265e-07 
3 1 -7.33339e-06 0.107175 0.459881 55.845 -8.38229e-08 
7 1 3.10902e-05 0.0357224 0.45975 55.845 4.84068e-07 
8 1 0.0357319 0.0714091 0.459722 55.845 4.26429e-08 
9 1 0.0714569 0.107114 0.459896 55.845 -1.31584e-07 
13 1 0.0357075 -6.07063e-05 0.460026 55.845 -2.37552e-08 
14 1 0.0714321 0.0356686 0.459874 55.845 -6.27583e-08 
15 1 0.107171 0.0714577 0.4599 55.845 -4.10795e-08 
20 1 0.107098 -2.83911e-05 0.459922 55.845 -5.20845e-08 
55 1 2.90184e-05 0.10712 0.376093 55.845 1.25063e-07 
63 1 4.29759e-05 0.0357511 0.376041 55.845 1.3117e-07 
64 1 -4.54238e-05 0.0714366 0.418381 55.845 -1.71222e-07 
65 1 0.0357185 0.0714638 0.376222 55.845 1.72623e-07 
66 1 0.0357151 0.107148 0.418378 55.845 -3.99632e-07 
67 1 0.0714202 0.107151 0.376184 55.845 -5.49357e-08 
74 1 2.42399e-05 -4.80015e-05 0.418356 55.845 -3.13489e-07 
75 1 0.0357734 -3.73569e-05 0.376182 55.845 9.63566e-08 
76 1 0.0357201 0.0356625 0.418351 55.845 -3.17253e-07 
77 1 0.071347 0.0357199 0.376228 55.845 1.9327e-07 
78 1 0.0714486 0.0714774 0.418447 55.845 -4.63457e-07 
79 1 0.107106 0.0714613 0.376202 55.845 9.81478e-08 
80 1 0.107119 0.10711 0.418345 55.845 -5.61877e-07 
88 1 0.0714005 -3.88333e-05 0.418357 55.845 -2.02974e-07 
89 1 0.107107 -3.98063e-05 0.376232 55.845 5.82644e-07 
90 1 0.107124 0.0357158 0.418382 55.845 -4.07738e-08 
157 1 -0.000120937 0.107197 0.292376 55.845 1.57161e-07 
165 1 1.44151e-05 0.0358059 0.292399 55.845 -1.88026e-07 
166 1 4.52057e-07 0.0714521 0.334032 55.845 2.14276e-07 
167 1 0.0356461 0.071448 0.29244 55.845 -2.82543e-08 
168 1 0.0356415 0.107133 0.334022 55.845 1.38197e-07 
169 1 0.0713978 0.107073 0.292345 55.845 9.2438e-08 
176 1 1.63687e-05 7.8821e-05 0.334046 55.845 -1.3662e-07 
177 1 0.0357773 1.2389e-05 0.292445 55.845 -4.58538e-08 
178 1 0.035699 0.0357968 0.334055 55.845 -4.08627e-08 
179 1 0.0714031 0.0357456 0.292441 55.845 -2.04734e-07 
180 1 0.0714576 0.0713892 0.334097 55.845 2.05599e-07 
181 1 0.107132 0.0714632 0.292319 55.845 8.8672e-08 
182 1 0.107146 0.107138 0.333993 55.845 1.68803e-07 
190 1 0.0714082 -2.37796e-05 0.334079 55.845 4.76524e-07 
191 1 0.107147 0.000159765 0.292596 55.845 7.04882e-08 
192 1 0.107085 0.0357584 0.334126 55.845 2.57465e-07 
268 1 -5.33994e-05 0.0714691 0.250824 55.845 -1.60304e-07 
270 1 0.0356004 0.107178 0.251028 55.845 9.92318e-08 
278 1 2.87124e-05 6.05836e-05 0.250935 55.845 1.08981e-07 
280 1 0.0356981 0.0357329 0.250999 55.845 -4.67479e-07 
282 1 0.0714086 0.0714244 0.250911 55.845 -1.3987e-07 
284 1 0.107138 0.107084 0.25078 55.845 1.1804e-07 
292 1 0.0714184 2.55446e-05 0.250761 55.845 -5.44656e-07 
294 1 0.107119 0.0357098 0.250982 55.845 -4.44642e-07 
16 1 0.142873 0.107054 0.45979 55.845 -1.6917e-07 
21 1 0.142856 0.0357581 0.459859 55.845 1.76561e-07 
22 1 0.178568 0.0713969 0.459758 55.845 5.89341e-08 
23 1 0.214251 0.107074 0.459734 55.845 -1.31891e-08 
27 1 0.178584 2.33073e-05 0.459707 55.845 -1.83638e-08 
28 1 0.214265 0.0356762 0.459837 55.845 4.38556e-08 
29 1 0.249996 0.0713627 0.459812 55.845 -4.8461e-08 
81 1 0.142835 0.107205 0.376125 55.845 -7.61938e-09 
91 1 0.142782 0.0357769 0.376057 55.845 2.85311e-07 
92 1 0.142824 0.0714146 0.418294 55.845 -1.25995e-07 
93 1 0.178565 0.0714334 0.376126 55.845 2.31554e-07 
94 1 0.178574 0.107131 0.41829 55.845 -1.69186e-07 
95 1 0.214245 0.107129 0.376193 55.845 1.64292e-07 
102 1 0.142868 1.50532e-05 0.418305 55.845 -1.2718e-07 
103 1 0.178496 6.96953e-05 0.376032 55.845 6.10342e-08 
104 1 0.178613 0.0357418 0.418212 55.845 -1.02138e-07 
105 1 0.214362 0.0357206 0.376007 55.845 2.97513e-07 
106 1 0.214304 0.0713702 0.418307 55.845 -4.03094e-07 
107 1 0.250005 0.0713669 0.376011 55.845 9.97671e-08 
108 1 0.250088 0.106983 0.418305 55.845 -6.66936e-07 
118 1 0.214238 6.15785e-05 0.418264 55.845 -2.43354e-07 
120 1 0.249933 0.0356796 0.418239 55.845 -1.35592e-07 
183 1 0.142822 0.107118 0.292395 55.845 2.55191e-07 
193 1 0.14289 0.0357557 0.292349 55.845 -2.83612e-07 
194 1 0.142834 0.0714743 0.333983 55.845 1.98326e-07 
195 1 0.178564 0.071459 0.292393 55.845 1.53637e-08 
196 1 0.178576 0.107189 0.333967 55.845 2.18572e-08 
197 1 0.214324 0.107184 0.292277 55.845 1.67373e-07 
204 1 0.142842 1.6039e-05 0.333979 55.845 6.66533e-08 
205 1 0.178528 4.47708e-05 0.292435 55.845 -3.80222e-07 
206 1 0.178574 0.0357189 0.333849 55.845 -2.26935e-07 
207 1 0.214312 0.0356712 0.292332 55.845 -2.87662e-07 
208 1 0.214214 0.0713981 0.333941 55.845 2.63938e-07 
209 1 0.250002 0.0714405 0.29246 55.845 1.47702e-07 
210 1 0.249946 0.107176 0.334008 55.845 -5.12654e-08 
220 1 0.214213 -1.93974e-05 0.333975 55.845 1.39424e-07 
222 1 0.250041 0.035739 0.333887 55.845 1.18099e-07 
296 1 0.142861 0.071435 0.250775 55.845 -1.91918e-07 
298 1 0.178502 0.107204 0.25086 55.845 7.11846e-08 
306 1 0.14286 -2.7123e-05 0.250799 55.845 -4.10936e-07 
308 1 0.178574 0.0356705 0.250817 55.845 -4.09244e-07 
310 1 0.214365 0.071466 0.250772 55.845 -2.33113e-07 
312 1 0.250056 0.107134 0.250733 55.845 -3.7767e-08 
322 1 0.214172 3.2015e-05 0.250795 55.845 -2.76554e-07 
324 1 0.250021 0.0356931 0.250883 55.845 -2.63336e-07 
30 1 0.285761 0.107084 0.459988 55.845 1.82733e-07 
35 1 0.249958 -2.42583e-05 0.459839 55.845 1.49717e-07 
36 1 0.285697 0.0356949 0.459795 55.845 2.36499e-07 
37 1 0.321388 0.0714997 0.459877 55.845 -1.44832e-07 
38 1 0.357138 0.10709 0.459824 55.845 2.19932e-07 
42 1 0.321465 4.35303e-05 0.459941 55.845 -1.62725e-07 
43 1 0.357161 0.0357785 0.459829 55.845 -1.5882e-07 
109 1 0.285731 0.10716 0.376039 55.845 1.59874e-07 
119 1 0.250002 -1.80501e-05 0.376117 55.845 3.09458e-07 
121 1 0.285697 0.0356984 0.376278 55.845 3.97312e-07 
122 1 0.285715 0.0714625 0.418246 55.845 -3.26592e-07 
123 1 0.321426 0.071412 0.376228 55.845 3.28195e-07 
124 1 0.321474 0.107075 0.418314 55.845 -2.72971e-07 
125 1 0.357167 0.107077 0.376072 55.845 -1.70386e-07 
133 1 0.321421 7.8793e-05 0.376143 55.845 -3.71969e-08 
134 1 0.321498 0.0357446 0.418446 55.845 -1.96759e-07 
135 1 0.357156 0.0357538 0.376195 55.845 3.47259e-07 
136 1 0.357194 0.0714015 0.418396 55.845 -8.66095e-08 
211 1 0.285764 0.107164 0.292445 55.845 1.52491e-07 
221 1 0.250037 2.15086e-05 0.292334 55.845 1.08249e-08 
223 1 0.285739 0.0356926 0.292407 55.845 7.79972e-08 
224 1 0.285764 0.0714632 0.334074 55.845 2.23158e-07 
225 1 0.32145 0.0714013 0.292392 55.845 -1.21609e-08 
226 1 0.321451 0.107044 0.333993 55.845 5.33261e-08 
227 1 0.357216 0.107158 0.292504 55.845 9.60797e-08 
235 1 0.321452 1.71607e-05 0.292455 55.845 -1.22581e-07 
236 1 0.321413 0.0357608 0.333992 55.845 9.69466e-08 
237 1 0.357197 0.0357556 0.292465 55.845 -3.18466e-07 
238 1 0.357111 0.0714156 0.333973 55.845 -3.60536e-08 
326 1 0.285721 0.0714899 0.250858 55.845 -1.72701e-07 
328 1 0.321536 0.107172 0.250865 55.845 -2.6363e-07 
338 1 0.321493 0.0356488 0.250952 55.845 -2.87748e-07 
340 1 0.357232 0.0714211 0.2509 55.845 -4.76424e-07 
44 1 0.392911 0.0713911 0.460023 55.845 1.33222e-07 
45 1 0.428595 0.107107 0.459996 55.845 -5.80251e-08 
47 1 0.392917 -5.3844e-05 0.459772 55.845 -1.99608e-07 
48 1 0.428594 0.0357183 0.459917 55.845 -1.35477e-07 
49 1 0.464335 0.0714412 0.459969 55.845 3.24976e-07 
50 1 0.464271 -4.61857e-05 0.45987 55.845 -1.43721e-09 
137 1 0.392855 0.0714249 0.376097 55.845 1.09602e-07 
138 1 0.392889 0.107117 0.418383 55.845 -4.57978e-07 
139 1 0.428621 0.107148 0.376122 55.845 3.42173e-07 
144 1 0.392886 7.83217e-05 0.376089 55.845 1.3742e-07 
145 1 0.392956 0.0357139 0.418388 55.845 -2.08232e-07 
146 1 0.428619 0.0356724 0.376038 55.845 9.80796e-08 
147 1 0.428629 0.0714549 0.418453 55.845 -4.57997e-07 
148 1 0.464309 0.0714642 0.376068 55.845 1.87251e-07 
149 1 0.464335 0.107089 0.418459 55.845 -2.99409e-08 
150 1 0.4286 3.06144e-05 0.418373 55.845 -6.56951e-07 
151 1 0.464328 8.22637e-06 0.376153 55.845 4.09771e-07 
152 1 0.464259 0.0357541 0.41821 55.845 -2.29502e-07 
239 1 0.392861 0.0714146 0.292367 55.845 -9.88189e-08 
240 1 0.392892 0.107087 0.334109 55.845 1.21917e-07 
241 1 0.428544 0.10713 0.292523 55.845 -3.26426e-09 
246 1 0.392868 4.52675e-05 0.292465 55.845 7.0264e-08 
247 1 0.392877 0.0357252 0.33406 55.845 -1.8534e-09 
248 1 0.428574 0.0357281 0.292403 55.845 3.19055e-08 
249 1 0.428616 0.0713847 0.333947 55.845 9.13249e-08 
250 1 0.464345 0.0714473 0.292369 55.845 -2.2191e-07 
251 1 0.464292 0.107088 0.333913 55.845 -3.18329e-08 
252 1 0.42859 -8.54651e-06 0.33402 55.845 2.0049e-07 
253 1 0.46433 -2.80661e-05 0.29239 55.845 -1.10464e-07 
254 1 0.464265 0.0356873 0.33412 55.845 1.21077e-07 
342 1 0.392931 0.107191 0.250893 55.845 -3.21051e-08 
349 1 0.392892 0.0356452 0.250828 55.845 -2.20492e-07 
351 1 0.428566 0.0714053 0.250934 55.845 -2.52345e-07 
353 1 0.464344 0.107097 0.250956 55.845 -3.35903e-07 
354 1 0.428581 -3.83084e-05 0.250894 55.845 -2.4668e-07 
356 1 0.464296 0.0356481 0.250859 55.845 -3.55574e-07 
1 1 1.61853e-05 0.178472 0.459743 55.845 4.14709e-07 
2 1 0.0356413 0.214225 0.459731 55.845 -9.81024e-08 
4 1 0.0357163 0.142894 0.460009 55.845 2.87494e-07 
5 1 0.0714272 0.178508 0.459795 55.845 -2.40666e-08 
6 1 0.10712 0.214241 0.459858 55.845 -5.33453e-08 
10 1 0.107177 0.142823 0.459923 55.845 -1.54025e-07 
51 1 -3.00576e-05 0.178509 0.37602 55.845 1.62501e-07 
52 1 -9.39923e-05 0.214237 0.41821 55.845 -2.84037e-07 
53 1 0.0357873 0.214357 0.37617 55.845 6.38998e-07 
54 1 0.0357515 0.249962 0.418199 55.845 -3.90083e-07 
56 1 3.65836e-06 0.142766 0.4183 55.845 -3.12434e-07 
57 1 0.0357654 0.142796 0.375994 55.845 9.78832e-08 
58 1 0.0357081 0.178543 0.41827 55.845 -2.16872e-07 
59 1 0.0715101 0.178598 0.376033 55.845 4.3302e-07 
60 1 0.0715076 0.21426 0.418219 55.845 -4.04002e-07 
61 1 0.107184 0.214314 0.376187 55.845 5.443e-07 
62 1 0.107138 0.249993 0.418335 55.845 -1.44485e-07 
68 1 0.071436 0.142899 0.418413 55.845 -3.95895e-07 
69 1 0.107103 0.142826 0.376145 55.845 1.16485e-07 
70 1 0.107127 0.17855 0.418403 55.845 -4.0707e-07 
153 1 4.37511e-05 0.178588 0.292308 55.845 -1.643e-07 
154 1 7.00024e-06 0.214272 0.334052 55.845 1.09918e-07 
155 1 0.03572 0.214233 0.29243 55.845 8.28051e-08 
156 1 0.0357143 0.249921 0.333895 55.845 1.41945e-07 
158 1 -8.93851e-06 0.142854 0.333969 55.845 -1.6642e-07 
159 1 0.0357131 0.142898 0.29235 55.845 -4.20199e-07 
160 1 0.0356786 0.17856 0.334049 55.845 1.19708e-07 
161 1 0.071443 0.17859 0.292451 55.845 -5.8854e-08 
162 1 0.0714565 0.214353 0.334038 55.845 5.69899e-07 
163 1 0.107162 0.214343 0.292386 55.845 2.16919e-07 
164 1 0.107187 0.250066 0.334006 55.845 1.42682e-08 
170 1 0.0714657 0.142788 0.333917 55.845 9.67262e-08 
171 1 0.107085 0.142828 0.292353 55.845 1.62374e-07 
172 1 0.107199 0.178618 0.333903 55.845 3.24531e-07 
256 1 1.35304e-05 0.214289 0.250913 55.845 -1.16253e-07 
258 1 0.0356861 0.250071 0.250889 55.845 -1.42804e-07 
260 1 -2.59309e-05 0.142854 0.250867 55.845 -3.01868e-07 
262 1 0.0358126 0.178589 0.250774 55.845 -5.18559e-07 
264 1 0.0714355 0.214294 0.25087 55.845 -2.69687e-07 
266 1 0.107162 0.250066 0.25085 55.845 9.53283e-08 
272 1 0.0714314 0.14284 0.250853 55.845 -3.66177e-07 
274 1 0.107091 0.178545 0.25077 55.845 -3.41557e-07 
11 1 0.142837 0.178559 0.459792 55.845 2.18955e-07 
12 1 0.178639 0.214273 0.459851 55.845 2.56137e-07 
17 1 0.178574 0.142838 0.459783 55.845 5.55833e-08 
18 1 0.214282 0.178612 0.459792 55.845 -6.36475e-08 
19 1 0.249985 0.21429 0.459861 55.845 -2.18088e-07 
24 1 0.250055 0.142797 0.459772 55.845 8.95523e-10 
71 1 0.142776 0.178555 0.376075 55.845 9.3555e-08 
72 1 0.142941 0.214262 0.41833 55.845 -5.74246e-08 
73 1 0.17858 0.214216 0.376194 55.845 2.1922e-07 
82 1 0.142897 0.14289 0.418258 55.845 -3.40497e-07 
83 1 0.178544 0.142883 0.376068 55.845 4.41444e-08 
84 1 0.178569 0.17855 0.418432 55.845 -1.66713e-07 
85 1 0.214284 0.178549 0.376147 55.845 4.96681e-07 
86 1 0.214236 0.214368 0.418286 55.845 -4.34e-07 
87 1 0.250014 0.214367 0.376097 55.845 5.42771e-07 
96 1 0.21435 0.142839 0.418246 55.845 -3.82229e-07 
97 1 0.25004 0.142833 0.376171 55.845 1.86746e-07 
98 1 0.250065 0.178522 0.418278 55.845 -3.5358e-07 
173 1 0.142855 0.178572 0.29242 55.845 -1.75743e-07 
174 1 0.142856 0.214344 0.334045 55.845 -3.63064e-08 
175 1 0.178444 0.2143 0.292293 55.845 -2.73893e-07 
184 1 0.14286 0.14285 0.33393 55.845 -8.84677e-08 
185 1 0.178536 0.142875 0.292357 55.845 -6.23308e-08 
186 1 0.178488 0.178598 0.333911 55.845 -3.52879e-07 
187 1 0.214225 0.178562 0.292511 55.845 -9.3131e-08 
188 1 0.214269 0.214259 0.333924 55.845 3.04053e-07 
189 1 0.250007 0.214267 0.292466 55.845 2.05334e-07 
198 1 0.214262 0.142865 0.333967 55.845 2.02919e-08 
199 1 0.249956 0.142865 0.292436 55.845 6.60211e-08 
200 1 0.250034 0.178527 0.333978 55.845 3.79669e-07 
276 1 0.142783 0.214336 0.250883 55.845 -2.06817e-07 
286 1 0.142834 0.14289 0.25077 55.845 -2.03576e-08 
288 1 0.178515 0.178632 0.250855 55.845 -1.6322e-07 
290 1 0.214239 0.214349 0.250933 55.845 -1.55643e-07 
300 1 0.214242 0.142877 0.250793 55.845 -2.6904e-07 
302 1 0.249972 0.178622 0.250908 55.845 -3.72497e-07 
25 1 0.285674 0.178594 0.459703 55.845 -3.99892e-08 
26 1 0.321407 0.214307 0.459841 55.845 1.78981e-07 
31 1 0.321443 0.142852 0.459871 55.845 1.44073e-07 
32 1 0.357058 0.178495 0.459792 55.845 1.50542e-08 
99 1 0.285744 0.178611 0.376055 55.845 3.20209e-07 
100 1 0.285692 0.214269 0.418334 55.845 -1.35263e-07 
101 1 0.321397 0.214322 0.376077 55.845 3.94848e-07 
110 1 0.285783 0.142825 0.418242 55.845 -3.71378e-07 
111 1 0.32153 0.142796 0.376087 55.845 2.73416e-07 
112 1 0.321439 0.17858 0.418307 55.845 -2.16805e-07 
113 1 0.357119 0.178567 0.376163 55.845 1.57397e-07 
114 1 0.357086 0.21431 0.418248 55.845 2.38133e-08 
126 1 0.357148 0.142844 0.418275 55.845 -5.18858e-07 
201 1 0.285684 0.178577 0.292308 55.845 1.8983e-08 
202 1 0.285693 0.214363 0.33402 55.845 -7.6902e-08 
203 1 0.321476 0.214216 0.29254 55.845 -3.38611e-07 
212 1 0.285682 0.142946 0.333938 55.845 1.02695e-07 
213 1 0.321358 0.1428 0.292438 55.845 1.26944e-07 
214 1 0.321455 0.178475 0.333982 55.845 -8.66892e-08 
215 1 0.357076 0.178539 0.292454 55.845 -1.56332e-07 