ITEM: TIMESTEP
4500
ITEM: NUMBER OF ATOMS
5880
ITEM: BOX BOUNDS pp pp ff
-27.9498 27.9498
-27.9498 27.9498
0 34.092
ITEM: ATOMS id type xs ys zs mass q 
259 1 1.9903e-05 0.107159 0.209493 55.845 -1.05551e-07 
267 1 -8.91243e-07 0.0358011 0.209586 55.845 -3.59723e-07 
269 1 0.0356969 0.0715477 0.209632 55.845 -1.36784e-07 
271 1 0.0714342 0.107071 0.209458 55.845 -2.8689e-07 
279 1 0.0357426 1.68292e-06 0.209494 55.845 -5.50098e-07 
281 1 0.0713885 0.035701 0.209539 55.845 -6.4233e-07 
283 1 0.107153 0.0714171 0.209489 55.845 -5.20931e-07 
293 1 0.107228 -3.4515e-05 0.209553 55.845 -3.96034e-07 
361 1 8.5232e-06 0.107174 0.125459 55.845 1.349e-07 
369 1 -2.3679e-05 0.0356723 0.125561 55.845 -1.81251e-07 
370 1 2.10252e-05 0.0714289 0.167613 55.845 -1.37468e-08 
371 1 0.0357816 0.0714785 0.125542 55.845 6.13368e-08 
372 1 0.0356642 0.107181 0.167574 55.845 3.04073e-07 
373 1 0.07143 0.107139 0.125517 55.845 8.42279e-08 
380 1 -3.18683e-05 -1.38598e-05 0.167486 55.845 1.81558e-08 
381 1 0.0357981 -1.53483e-05 0.125545 55.845 -4.68606e-07 
382 1 0.0357156 0.0357572 0.167637 55.845 -5.76886e-08 
383 1 0.071405 0.0357156 0.125661 55.845 -3.43478e-07 
384 1 0.071377 0.071419 0.167708 55.845 1.59336e-07 
385 1 0.107058 0.0714554 0.125537 55.845 -5.60529e-07 
386 1 0.10718 0.107086 0.167603 55.845 2.61088e-07 
394 1 0.0714891 2.29604e-05 0.167619 55.845 1.13669e-07 
395 1 0.107129 -9.87773e-06 0.125481 55.845 -1.31732e-07 
396 1 0.107093 0.0356739 0.167559 55.845 2.81195e-07 
463 1 0 0.107143 0.0416667 55.845 4.16126e-07 
471 1 0 0.0357143 0.0416667 55.845 1.41117e-07 
472 1 1.0771e-05 0.0713469 0.0831395 55.845 3.06783e-07 
473 1 0.0357143 0.0714286 0.0416667 55.845 5.27526e-07 
474 1 0.0357298 0.107183 0.0831027 55.845 -8.07804e-08 
475 1 0.0714286 0.107143 0.0416667 55.845 4.64492e-07 
482 1 -1.01058e-05 2.72085e-05 0.0831727 55.845 -1.35019e-07 
483 1 0.0357143 0 0.0416667 55.845 1.48419e-07 
484 1 0.0357848 0.0357148 0.0831156 55.845 -3.18133e-07 
485 1 0.0714286 0.0357143 0.0416667 55.845 3.08792e-07 
486 1 0.0714496 0.0714821 0.0831782 55.845 1.17587e-08 
487 1 0.107143 0.0714286 0.0416667 55.845 7.07532e-09 
488 1 0.107136 0.107144 0.08316 55.845 -3.04917e-07 
496 1 0.0713597 -1.05466e-05 0.0831578 55.845 -1.74552e-07 
497 1 0.107143 0 0.0416667 55.845 3.09644e-07 
498 1 0.107121 0.0356973 0.0832248 55.845 -1.40951e-07 
567 1 0 0.0714286 0 55.845 -5.1291e-09 
568 1 0.0357143 0.107143 0 55.845 6.56752e-08 
572 1 0 0 0 55.845 -1.98897e-07 
573 1 0.0357143 0.0357143 0 55.845 3.8311e-08 
574 1 0.0714286 0.0714286 0 55.845 -6.00728e-08 
575 1 0.107143 0.107143 0 55.845 3.21626e-08 
579 1 0.0714286 0 0 55.845 -2.86493e-07 
580 1 0.107143 0.0357143 0 55.845 -6.57966e-08 
285 1 0.142775 0.107163 0.209694 55.845 -6.55652e-07 
295 1 0.142876 0.0357185 0.209525 55.845 -3.09013e-07 
297 1 0.1785 0.071473 0.209377 55.845 -3.82258e-07 
299 1 0.214258 0.107133 0.20937 55.845 -3.18967e-07 
307 1 0.178565 -5.19197e-05 0.209446 55.845 -2.9008e-07 
309 1 0.214255 0.0357142 0.209543 55.845 -5.39583e-07 
311 1 0.249955 0.0713756 0.209377 55.845 -3.81485e-07 
387 1 0.142855 0.107165 0.12549 55.845 -4.33898e-07 
397 1 0.142878 0.0357569 0.125514 55.845 -1.9258e-07 
398 1 0.142845 0.071409 0.167392 55.845 -6.11091e-08 
399 1 0.178571 0.0713722 0.125306 55.845 -3.70227e-07 
400 1 0.178528 0.107145 0.167439 55.845 2.49136e-07 
401 1 0.214267 0.107159 0.125444 55.845 -3.59915e-07 
408 1 0.142865 -1.23896e-05 0.167521 55.845 3.65741e-07 
409 1 0.178594 5.06681e-05 0.125497 55.845 2.09979e-07 
410 1 0.17859 0.0357271 0.167521 55.845 3.63119e-07 
411 1 0.214382 0.0357469 0.125429 55.845 -3.70393e-07 
412 1 0.214231 0.0714163 0.167542 55.845 1.79816e-07 
413 1 0.24998 0.0713543 0.12549 55.845 -6.32991e-07 
414 1 0.249944 0.107145 0.167546 55.845 5.58079e-07 
424 1 0.214234 1.54767e-05 0.167523 55.845 3.88651e-08 
426 1 0.249996 0.0356113 0.167653 55.845 2.17861e-07 
489 1 0.142857 0.107143 0.0416667 55.845 7.98537e-08 
499 1 0.142857 0.0357143 0.0416667 55.845 7.95507e-08 
500 1 0.142889 0.0714428 0.0830161 55.845 2.56452e-07 
501 1 0.178571 0.0714286 0.0416667 55.845 1.05155e-07 
502 1 0.178577 0.10714 0.0830005 55.845 8.02616e-08 
503 1 0.214286 0.107143 0.0416667 55.845 3.95194e-07 
510 1 0.14286 -5.33419e-05 0.0832409 55.845 2.48945e-07 
511 1 0.178571 0 0.0416667 55.845 2.31479e-07 
512 1 0.178598 0.0357149 0.0830166 55.845 2.12532e-07 
513 1 0.214286 0.0357143 0.0416667 55.845 3.95403e-08 
514 1 0.214278 0.0714319 0.0830754 55.845 2.82626e-07 
515 1 0.25 0.0714286 0.0416667 55.845 1.35487e-07 
516 1 0.25001 0.107149 0.0831798 55.845 1.05115e-07 
526 1 0.214265 -9.69993e-05 0.0830511 55.845 -2.27435e-07 
528 1 0.250084 0.0356702 0.0830954 55.845 -2.3505e-07 
581 1 0.142857 0.0714286 0 55.845 2.68369e-08 
582 1 0.178571 0.107143 0 55.845 1.07616e-07 
586 1 0.142857 0 0 55.845 9.95016e-09 
587 1 0.178571 0.0357143 0 55.845 1.97112e-07 
588 1 0.214286 0.0714286 0 55.845 -5.72693e-08 
589 1 0.25 0.107143 0 55.845 4.62999e-09 
594 1 0.214286 0 0 55.845 3.42924e-08 
595 1 0.25 0.0357143 0 55.845 -4.96594e-08 
313 1 0.285662 0.107154 0.209438 55.845 -7.38973e-09 
323 1 0.250023 -2.73933e-05 0.209448 55.845 -6.26409e-07 
325 1 0.285665 0.0356984 0.2096 55.845 -6.47197e-07 
327 1 0.321437 0.071361 0.209549 55.845 -2.13806e-07 
329 1 0.357118 0.107136 0.209461 55.845 -2.77282e-07 
337 1 0.321443 -5.09939e-05 0.209605 55.845 -1.24395e-07 
339 1 0.357109 0.0355917 0.209586 55.845 -2.3575e-07 
415 1 0.285671 0.107121 0.125499 55.845 -3.68888e-07 
425 1 0.249938 -0.000110175 0.125445 55.845 1.19196e-08 
427 1 0.285718 0.0356865 0.125422 55.845 -3.39513e-07 
428 1 0.285759 0.0714143 0.167522 55.845 1.31707e-07 
429 1 0.32148 0.0714346 0.12531 55.845 -5.07031e-07 
430 1 0.32142 0.10712 0.167572 55.845 7.04061e-08 
431 1 0.35713 0.107094 0.125335 55.845 -3.37846e-07 
439 1 0.321379 1.63792e-06 0.125607 55.845 1.66797e-07 
440 1 0.321379 0.0357116 0.167557 55.845 2.20043e-07 
441 1 0.357136 0.0356955 0.125456 55.845 -2.78201e-07 
442 1 0.357206 0.071377 0.167546 55.845 -5.53006e-08 
517 1 0.285714 0.107143 0.0416667 55.845 3.57002e-07 
527 1 0.25 0 0.0416667 55.845 2.87229e-07 
529 1 0.285714 0.0357143 0.0416667 55.845 3.10706e-07 
530 1 0.285723 0.0714024 0.0831673 55.845 4.94894e-08 
531 1 0.321429 0.0714286 0.0416667 55.845 8.74032e-08 
532 1 0.321459 0.107156 0.0831509 55.845 1.53106e-09 
533 1 0.357143 0.107143 0.0416667 55.845 4.92101e-08 
603 1 0.357143 0.0714286 0 55.845 -2.48171e-07 
541 1 0.321429 0 0.0416667 55.845 4.55049e-07 
542 1 0.321416 0.0357061 0.0831098 55.845 -6.48556e-09 
543 1 0.357143 0.0357143 0.0416667 55.845 2.64918e-07 
544 1 0.357198 0.0714095 0.0830505 55.845 1.05001e-07 
602 1 0.321429 0.0357143 0 55.845 1.8357e-07 
596 1 0.285714 0.0714286 0 55.845 -1.51325e-07 
597 1 0.321429 0.107143 0 55.845 1.70599e-08 
612 1 0.464286 0.0357143 0 55.845 -2.8e-07 
611 1 0.428571 0 0 55.845 -1.4583e-07 
610 1 0.464286 0.107143 0 55.845 -1.26949e-07 
609 1 0.428571 0.0714286 0 55.845 -1.32568e-07 
608 1 0.392857 0.0357143 0 55.845 -6.74053e-08 
341 1 0.392906 0.0714737 0.209479 55.845 -4.7547e-07 
343 1 0.428619 0.107236 0.209547 55.845 -3.49517e-07 
348 1 0.392866 -9.6546e-05 0.209623 55.845 -3.39968e-07 
350 1 0.428508 0.0357193 0.209499 55.845 -7.74448e-07 
352 1 0.464281 0.0714648 0.209552 55.845 -4.27036e-07 
355 1 0.464286 7.1444e-05 0.209549 55.845 -5.41976e-07 
443 1 0.3928 0.0714966 0.125451 55.845 -4.78257e-07 
444 1 0.392828 0.107057 0.167676 55.845 -1.80544e-08 
445 1 0.428549 0.107176 0.12556 55.845 -1.35174e-08 
604 1 0.392857 0.107143 0 55.845 -8.35787e-08 
450 1 0.392869 -9.66473e-05 0.12544 55.845 -3.53246e-07 
451 1 0.392861 0.0356905 0.167452 55.845 2.04286e-07 
452 1 0.428563 0.0357398 0.125399 55.845 -6.67293e-07 
453 1 0.428556 0.0715248 0.167461 55.845 1.07675e-07 
454 1 0.46434 0.0714761 0.125534 55.845 -2.61546e-07 
455 1 0.46429 0.107227 0.167577 55.845 1.35952e-07 
456 1 0.428606 -3.56302e-06 0.167508 55.845 4.48094e-07 
457 1 0.464298 2.06216e-05 0.125442 55.845 -5.74281e-07 
458 1 0.464278 0.0357244 0.167491 55.845 4.25501e-07 
545 1 0.392857 0.0714286 0.0416667 55.845 2.62147e-07 
546 1 0.392868 0.107046 0.0832132 55.845 1.5056e-07 
547 1 0.428571 0.107143 0.0416667 55.845 4.53787e-07 
552 1 0.392857 0 0.0416667 55.845 2.5391e-07 
553 1 0.392811 0.035726 0.0830714 55.845 2.75651e-07 
554 1 0.428571 0.0357143 0.0416667 55.845 4.94824e-07 
555 1 0.428568 0.0713945 0.0831304 55.845 1.07693e-08 
556 1 0.464286 0.0714286 0.0416667 55.845 4.22318e-07 
557 1 0.464276 0.107137 0.0831466 55.845 -3.06174e-09 
558 1 0.428539 5.2602e-05 0.0831653 55.845 2.15263e-08 
559 1 0.464286 0 0.0416667 55.845 4.20947e-07 
560 1 0.464285 0.0356707 0.0833263 55.845 -7.77464e-08 
255 1 -2.75869e-06 0.178525 0.209519 55.845 -7.07589e-08 
257 1 0.0357397 0.214276 0.209537 55.845 -2.13189e-07 
261 1 0.035753 0.142897 0.209458 55.845 -1.61549e-07 
263 1 0.0714131 0.178577 0.20954 55.845 -2.2522e-07 
265 1 0.107138 0.214278 0.209604 55.845 -2.8634e-07 
273 1 0.107145 0.142883 0.209629 55.845 -5.27835e-07 
357 1 -3.7738e-06 0.178612 0.125533 55.845 -5.23149e-08 
358 1 1.89151e-05 0.214287 0.167546 55.845 2.42853e-08 
359 1 0.0356913 0.214311 0.125421 55.845 -2.48237e-07 
360 1 0.0357604 0.24998 0.167634 55.845 2.70688e-07 
362 1 -4.01784e-05 0.142851 0.167554 55.845 -2.76195e-07 
363 1 0.0357973 0.142849 0.125659 55.845 7.66164e-08 
364 1 0.0356783 0.178576 0.167654 55.845 1.15884e-08 
365 1 0.071389 0.178585 0.125557 55.845 -3.12643e-07 
366 1 0.0713767 0.21437 0.16757 55.845 6.72508e-08 
367 1 0.107132 0.214322 0.125552 55.845 -3.27712e-07 
368 1 0.107146 0.250023 0.167615 55.845 3.01648e-07 
374 1 0.0715013 0.142903 0.167687 55.845 6.3205e-08 
375 1 0.10711 0.142941 0.125403 55.845 -2.951e-07 
376 1 0.107136 0.17862 0.167718 55.845 1.25076e-07 
459 1 0 0.178571 0.0416667 55.845 2.04039e-07 
460 1 -1.74119e-05 0.214265 0.0830108 55.845 6.34721e-08 
461 1 0.0357143 0.214286 0.0416667 55.845 1.43912e-07 
462 1 0.0357262 0.250039 0.0831839 55.845 6.84791e-08 
464 1 5.43509e-05 0.142878 0.0832145 55.845 -2.07403e-07 
465 1 0.0357143 0.142857 0.0416667 55.845 4.865e-07 
466 1 0.0357558 0.178627 0.0831357 55.845 -3.9734e-07 
467 1 0.0714286 0.178571 0.0416667 55.845 1.52217e-07 
468 1 0.0714437 0.214349 0.0831333 55.845 8.51179e-08 
469 1 0.107143 0.214286 0.0416667 55.845 1.17985e-07 
470 1 0.107095 0.250023 0.0830649 55.845 1.68372e-07 
476 1 0.0714326 0.142758 0.0831602 55.845 -3.10865e-08 
477 1 0.107143 0.142857 0.0416667 55.845 1.23806e-07 
478 1 0.107129 0.178611 0.0832221 55.845 -8.31781e-08 
561 1 0 0.214286 0 55.845 1.69251e-07 
562 1 0.0357143 0.25 0 55.845 1.04257e-07 
563 1 0 0.142857 0 55.845 -1.33925e-07 
564 1 0.0357143 0.178571 0 55.845 -6.61761e-08 
565 1 0.0714286 0.214286 0 55.845 -1.3514e-08 
566 1 0.107143 0.25 0 55.845 2.51275e-07 
569 1 0.0714286 0.142857 0 55.845 -1.43002e-07 
570 1 0.107143 0.178571 0 55.845 1.00065e-07 
275 1 0.14288 0.178611 0.209568 55.845 -2.87939e-07 
277 1 0.178609 0.214348 0.209582 55.845 -3.58144e-07 
287 1 0.17855 0.142854 0.209567 55.845 -3.94513e-07 
289 1 0.214239 0.17861 0.209452 55.845 -6.55548e-07 
291 1 0.249954 0.214323 0.20952 55.845 -7.58052e-07 
301 1 0.24991 0.142911 0.209482 55.845 -2.19027e-07 
377 1 0.142841 0.178549 0.125525 55.845 -3.64102e-07 
378 1 0.142898 0.214261 0.16753 55.845 2.818e-07 
379 1 0.178574 0.214205 0.125374 55.845 -3.52869e-07 
388 1 0.142829 0.142911 0.167604 55.845 4.73545e-09 
389 1 0.178524 0.142921 0.125402 55.845 -2.81068e-07 
390 1 0.178608 0.178605 0.167609 55.845 2.36588e-07 
391 1 0.214256 0.178542 0.125521 55.845 -4.9496e-07 
392 1 0.214213 0.214292 0.167559 55.845 1.45088e-07 
393 1 0.249992 0.214299 0.125498 55.845 -6.16747e-07 
402 1 0.214146 0.142783 0.16757 55.845 2.45175e-07 
403 1 0.249969 0.142903 0.125598 55.845 -3.45035e-07 
404 1 0.249909 0.178627 0.167593 55.845 1.68996e-07 
479 1 0.142857 0.178571 0.0416667 55.845 4.28322e-08 
480 1 0.142788 0.21421 0.0830747 55.845 4.9403e-07 
481 1 0.178571 0.214286 0.0416667 55.845 5.05786e-08 
490 1 0.142811 0.142827 0.0832072 55.845 1.55552e-07 
491 1 0.178571 0.142857 0.0416667 55.845 3.09626e-07 
492 1 0.178578 0.178541 0.0831519 55.845 1.72252e-07 
493 1 0.214286 0.178571 0.0416667 55.845 2.3554e-07 
494 1 0.214263 0.214226 0.0830833 55.845 1.12513e-07 
495 1 0.25 0.214286 0.0416667 55.845 1.80935e-07 
504 1 0.214279 0.142853 0.0830796 55.845 4.41404e-07 
505 1 0.25 0.142857 0.0416667 55.845 5.52895e-07 
506 1 0.249996 0.178547 0.0831802 55.845 -9.87789e-09 
571 1 0.142857 0.214286 0 55.845 4.04211e-08 
576 1 0.142857 0.142857 0 55.845 -1.68325e-07 
577 1 0.178571 0.178571 0 55.845 4.91461e-08 
578 1 0.214286 0.214286 0 55.845 -1.2929e-07 
583 1 0.214286 0.142857 0 55.845 -2.18938e-07 
584 1 0.25 0.178571 0 55.845 7.48249e-08 
303 1 0.285671 0.178589 0.209443 55.845 -5.06751e-07 
305 1 0.321443 0.214259 0.209603 55.845 -3.98219e-07 
315 1 0.32147 0.142851 0.209644 55.845 -2.0305e-07 
317 1 0.357205 0.178438 0.20964 55.845 -9.67324e-08 
405 1 0.285752 0.178539 0.125464 55.845 -4.22517e-07 
406 1 0.285715 0.214335 0.167572 55.845 1.16489e-07 
407 1 0.321354 0.214298 0.125576 55.845 -2.31148e-07 
416 1 0.285683 0.142858 0.167612 55.845 3.59544e-07 
417 1 0.321387 0.14289 0.12559 55.845 -1.73036e-07 
418 1 0.321391 0.178536 0.167556 55.845 1.08488e-07 
419 1 0.357173 0.178611 0.125474 55.845 -1.04215e-07 
420 1 0.357119 0.214311 0.167561 55.845 7.77873e-08 
432 1 0.35711 0.142909 0.167465 55.845 -1.24202e-07 
507 1 0.285714 0.178571 0.0416667 55.845 1.85775e-07 
508 1 0.285734 0.214306 0.0831844 55.845 -1.84523e-07 
509 1 0.321429 0.214286 0.0416667 55.845 7.21492e-09 
518 1 0.285699 0.142775 0.0832159 55.845 2.50339e-07 
519 1 0.321429 0.142857 0.0416667 55.845 3.92842e-07 
520 1 0.321365 0.178557 0.0831748 55.845 4.39236e-08 
521 1 0.357143 0.178571 0.0416667 55.845 2.11273e-07 
522 1 0.357058 0.214245 0.0830567 55.845 1.78089e-07 
534 1 0.357124 0.142915 0.0830609 55.845 1.56981e-07 
585 1 0.285714 0.214286 0 55.845 -1.17841e-07 
590 1 0.285714 0.142857 0 55.845 -6.75113e-08 
591 1 0.321429 0.178571 0 55.845 1.35314e-07 
592 1 0.357143 0.214286 0 55.845 1.65272e-07 
598 1 0.357143 0.142857 0 55.845 8.31654e-08 
319 1 0.3929 0.214251 0.209479 55.845 -4.36856e-07 
321 1 0.42858 0.250067 0.209491 55.845 -4.51809e-07 
331 1 0.392898 0.142799 0.209549 55.845 -2.16651e-07 
333 1 0.428548 0.178612 0.209549 55.845 -3.40324e-07 
335 1 0.464301 0.214279 0.209554 55.845 -5.12728e-07 
345 1 0.464332 0.142877 0.20959 55.845 -1.20659e-07 
606 1 0.464286 0.178571 0 55.845 1.28551e-08 
421 1 0.392834 0.214269 0.125478 55.845 -1.43529e-07 
422 1 0.392862 0.249974 0.167568 55.845 1.54206e-07 
423 1 0.428564 0.249974 0.125504 55.845 7.00987e-08 
433 1 0.39284 0.142715 0.125492 55.845 -8.06073e-08 
434 1 0.392898 0.178547 0.167598 55.845 2.63461e-08 
435 1 0.428575 0.178541 0.125549 55.845 -1.03431e-07 
436 1 0.428596 0.21434 0.167559 55.845 -3.64545e-08 
437 1 0.464311 0.214238 0.125484 55.845 2.84507e-08 
605 1 0.428571 0.142857 0 55.845 2.28616e-08 
446 1 0.428682 0.142864 0.167528 55.845 1.98144e-07 
447 1 0.464363 0.142895 0.125531 55.845 2.64172e-07 
448 1 0.464288 0.178618 0.167582 55.845 -4.21994e-08 
523 1 0.392857 0.214286 0.0416667 55.845 7.13019e-08 
524 1 0.392848 0.24995 0.0832597 55.845 -1.15923e-07 
525 1 0.428571 0.25 0.0416667 55.845 1.70483e-07 
535 1 0.392857 0.142857 0.0416667 55.845 2.60491e-07 
536 1 0.392839 0.178519 0.0830292 55.845 -2.10618e-07 
537 1 0.428571 0.178571 0.0416667 55.845 2.30303e-07 
538 1 0.428583 0.214229 0.0831412 55.845 -5.89773e-07 
539 1 0.464286 0.214286 0.0416667 55.845 2.83519e-07 
548 1 0.428548 0.142877 0.0832228 55.845 -5.64266e-08 
549 1 0.464286 0.142857 0.0416667 55.845 3.59613e-07 
550 1 0.464217 0.178551 0.0830559 55.845 -4.03949e-07 
593 1 0.392857 0.25 0 55.845 1.60891e-07 
599 1 0.392857 0.178571 0 55.845 1.5046e-07 
600 1 0.428571 0.214286 0 55.845 7.20588e-08 
3 1 -2.04461e-05 0.10715 0.461168 55.845 5.23414e-08 
7 1 -6.84672e-06 0.035721 0.461303 55.845 6.05156e-09 
8 1 0.0357468 0.0713056 0.461276 55.845 3.63042e-07 
9 1 0.0714433 0.107057 0.46124 55.845 6.22366e-08 
13 1 0.0357327 4.87118e-05 0.461294 55.845 -3.12255e-07 
14 1 0.0714679 0.0357571 0.461229 55.845 -4.15812e-08 
15 1 0.107208 0.0715127 0.461336 55.845 -1.22817e-07 
20 1 0.107185 -5.43039e-06 0.461172 55.845 1.73357e-07 
55 1 4.39606e-05 0.107179 0.378005 55.845 -2.16651e-07 
63 1 -3.08387e-06 0.0357381 0.378095 55.845 -1.71796e-07 
64 1 -6.42438e-06 0.0714209 0.41983 55.845 1.68061e-07 
65 1 0.035745 0.0714621 0.378112 55.845 2.02839e-07 
66 1 0.0357087 0.107151 0.419876 55.845 2.64071e-07 
67 1 0.0715892 0.10716 0.378111 55.845 5.72513e-08 
74 1 -2.83154e-05 -7.31256e-05 0.420021 55.845 -1.86229e-07 
75 1 0.0356892 2.5869e-05 0.377986 55.845 -3.10647e-07 
76 1 0.0357532 0.0356964 0.419779 55.845 -1.28442e-07 
77 1 0.071483 0.035783 0.378088 55.845 -2.75905e-07 
78 1 0.0714645 0.0714644 0.419817 55.845 -2.84268e-07 
79 1 0.107283 0.0714283 0.377876 55.845 -1.93733e-07 
80 1 0.107285 0.10708 0.419871 55.845 4.92489e-08 
88 1 0.0714682 -4.99447e-06 0.419849 55.845 -4.46082e-07 
89 1 0.107158 -6.1118e-05 0.377983 55.845 -2.29512e-07 
90 1 0.107159 0.0357438 0.419803 55.845 -9.04304e-08 
157 1 2.69182e-05 0.10715 0.294726 55.845 2.27947e-07 
165 1 -5.75341e-05 0.0358492 0.294807 55.845 5.23771e-08 
166 1 -1.70432e-05 0.0714697 0.336781 55.845 3.14073e-07 
167 1 0.0357348 0.0715225 0.294838 55.845 4.27381e-09 
168 1 0.0358086 0.107179 0.336825 55.845 3.78305e-07 
169 1 0.0715318 0.107056 0.294837 55.845 -5.31527e-09 
176 1 6.4397e-06 4.79446e-05 0.336794 55.845 2.36857e-07 
177 1 0.035658 -2.14996e-05 0.294658 55.845 -3.10457e-07 
178 1 0.03571 0.0358222 0.336763 55.845 1.13478e-07 
179 1 0.0714376 0.0357199 0.294907 55.845 -2.93956e-07 
180 1 0.0714399 0.0714854 0.336696 55.845 1.97305e-07 
181 1 0.107141 0.0714168 0.294791 55.845 -4.00401e-07 
182 1 0.10729 0.107181 0.336647 55.845 2.58995e-07 
190 1 0.071438 1.89402e-05 0.33672 55.845 2.67377e-07 
191 1 0.107199 2.02578e-05 0.294791 55.845 1.14057e-07 
192 1 0.107171 0.0357233 0.336722 55.845 2.37818e-07 
268 1 1.3813e-05 0.0713362 0.252157 55.845 3.2168e-07 
270 1 0.0357466 0.107148 0.252155 55.845 2.59593e-07 
278 1 4.2717e-05 3.76152e-05 0.252141 55.845 1.8135e-07 
280 1 0.0356477 0.0357564 0.252204 55.845 2.4878e-07 
282 1 0.0713888 0.0713938 0.252082 55.845 2.92195e-07 
284 1 0.107121 0.107087 0.252179 55.845 2.64066e-07 
292 1 0.0714836 -6.52252e-06 0.252241 55.845 1.62668e-07 
294 1 0.107068 0.0357953 0.252129 55.845 3.15943e-07 
16 1 0.14296 0.107174 0.46133 55.845 -3.14456e-07 
21 1 0.142906 0.0356829 0.461308 55.845 2.21106e-07 
22 1 0.17866 0.0714005 0.461155 55.845 1.04123e-07 
23 1 0.214367 0.107163 0.461295 55.845 4.01041e-09 
27 1 0.178633 3.2347e-05 0.461189 55.845 2.01939e-07 
28 1 0.214342 0.0357078 0.461143 55.845 -1.48749e-07 
29 1 0.25001 0.0714241 0.461343 55.845 -1.26586e-07 
81 1 0.142998 0.107186 0.37798 55.845 -3.34705e-07 
91 1 0.142883 0.0357057 0.37796 55.845 -5.67719e-08 
92 1 0.142939 0.0714431 0.419824 55.845 -2.39343e-07 
93 1 0.178692 0.0714379 0.377979 55.845 -1.33301e-07 
94 1 0.178635 0.107116 0.419757 55.845 2.98861e-07 
95 1 0.21433 0.107194 0.377834 55.845 -8.48297e-08 
102 1 0.14282 -2.63464e-05 0.419765 55.845 2.57005e-07 
103 1 0.178618 2.20963e-05 0.378013 55.845 -1.26714e-07 
104 1 0.178637 0.0357481 0.419785 55.845 1.11482e-07 
105 1 0.214295 0.0356751 0.377918 55.845 -4.78635e-07 
106 1 0.21434 0.0714255 0.419794 55.845 -3.24024e-07 
107 1 0.250026 0.0713755 0.377851 55.845 -1.8867e-07 
108 1 0.250049 0.107127 0.419785 55.845 2.71401e-07 
118 1 0.214305 -4.76281e-06 0.419899 55.845 -1.48292e-07 
120 1 0.250038 0.0357921 0.419809 55.845 -3.56428e-07 
183 1 0.142902 0.107169 0.294677 55.845 -4.97601e-07 
193 1 0.142845 0.0356921 0.294711 55.845 5.92929e-08 
194 1 0.142961 0.0714599 0.33653 55.845 2.48864e-07 
195 1 0.178605 0.0714927 0.294648 55.845 -2.46244e-07 
196 1 0.178631 0.107132 0.336578 55.845 3.0752e-07 
197 1 0.21437 0.10717 0.294592 55.845 -2.42872e-07 
204 1 0.142935 6.61957e-06 0.33664 55.845 6.93699e-07 
205 1 0.178577 2.25434e-05 0.29476 55.845 4.09737e-07 
206 1 0.178533 0.0357599 0.3367 55.845 4.4804e-07 
207 1 0.214294 0.0357088 0.294673 55.845 -2.25222e-07 
208 1 0.214316 0.0715173 0.336614 55.845 4.17761e-07 
209 1 0.249944 0.0714202 0.294728 55.845 -2.24543e-07 
210 1 0.249994 0.107101 0.33673 55.845 7.02929e-07 
220 1 0.214329 -7.5547e-07 0.336695 55.845 2.59033e-07 
222 1 0.250067 0.0356969 0.336607 55.845 1.93429e-07 
296 1 0.142879 0.0714538 0.252053 55.845 4.73829e-07 
298 1 0.178668 0.107128 0.252183 55.845 4.86412e-07 
306 1 0.142864 6.08539e-05 0.252087 55.845 6.01363e-07 
308 1 0.178537 0.0357195 0.25207 55.845 3.7575e-07 
310 1 0.214303 0.0714284 0.252011 55.845 3.28948e-07 
312 1 0.250007 0.107111 0.251841 55.845 6.74114e-07 
322 1 0.214282 -5.41227e-06 0.252024 55.845 1.51851e-07 
324 1 0.250083 0.0356137 0.252091 55.845 -9.11878e-08 
30 1 0.285747 0.107127 0.46135 55.845 -2.16111e-07 
35 1 0.249986 8.17424e-06 0.461226 55.845 -1.61604e-07 
36 1 0.285693 0.0357031 0.461374 55.845 -1.62149e-07 
37 1 0.321451 0.0714332 0.461263 55.845 -2.67728e-07 
38 1 0.357099 0.107141 0.461244 55.845 -3.09178e-07 
42 1 0.321416 3.59323e-05 0.461297 55.845 2.78959e-08 
43 1 0.357215 0.0357099 0.461232 55.845 -1.43782e-07 
109 1 0.285763 0.107119 0.378093 55.845 -8.27505e-08 
119 1 0.249994 2.80946e-05 0.378044 55.845 -4.97009e-07 
121 1 0.285766 0.0357773 0.37786 55.845 -2.84793e-07 
122 1 0.285754 0.0713988 0.419921 55.845 -3.54677e-07 
123 1 0.321427 0.0714251 0.377985 55.845 -1.69646e-07 
124 1 0.321417 0.10726 0.419812 55.845 -1.61913e-08 
125 1 0.357108 0.107133 0.378033 55.845 -2.54301e-07 
133 1 0.321378 3.20479e-05 0.378071 55.845 -1.0296e-07 
134 1 0.321384 0.0356784 0.419948 55.845 2.25906e-08 
135 1 0.357231 0.0358023 0.378092 55.845 -8.78273e-08 
136 1 0.357149 0.0714123 0.419734 55.845 -1.40511e-07 
211 1 0.285734 0.107157 0.294559 55.845 -1.531e-07 
221 1 0.250009 -7.91807e-05 0.294702 55.845 -2.45581e-07 
223 1 0.285742 0.0357346 0.294721 55.845 -3.52683e-07 
224 1 0.28576 0.0715315 0.336641 55.845 4.61438e-07 
225 1 0.321315 0.0713835 0.29469 55.845 -3.15107e-07 
226 1 0.321441 0.107106 0.336474 55.845 3.02237e-07 
227 1 0.357116 0.107137 0.294705 55.845 -3.88592e-07 
235 1 0.321405 -5.25275e-05 0.294855 55.845 -6.77786e-08 
236 1 0.321511 0.0356463 0.336793 55.845 5.69556e-07 
237 1 0.3571 0.0356772 0.294792 55.845 -3.11266e-07 
238 1 0.357081 0.0714349 0.336564 55.845 2.31283e-07 
326 1 0.285685 0.0714084 0.252058 55.845 2.31876e-07 
328 1 0.321421 0.107034 0.252109 55.845 2.23229e-07 
338 1 0.321446 0.0356653 0.252209 55.845 2.9106e-07 
340 1 0.35726 0.0714498 0.25211 55.845 2.81052e-07 
44 1 0.392835 0.0714576 0.461283 55.845 -3.08331e-07 
45 1 0.428588 0.107227 0.461215 55.845 1.85041e-09 
47 1 0.392783 -6.55229e-05 0.4613 55.845 -1.64969e-07 
48 1 0.428547 0.0356871 0.46129 55.845 -3.56291e-07 
49 1 0.464334 0.0714696 0.461377 55.845 -2.2065e-07 
50 1 0.4643 -1.88726e-05 0.461232 55.845 -3.35874e-07 
137 1 0.392895 0.0714973 0.377988 55.845 -2.80274e-07 
138 1 0.392828 0.107209 0.419759 55.845 7.9888e-08 
139 1 0.428578 0.107107 0.377961 55.845 2.31696e-08 
144 1 0.392893 -1.09585e-05 0.378061 55.845 -3.91767e-07 
145 1 0.392874 0.0357004 0.419949 55.845 -3.16617e-08 
146 1 0.428543 0.0356719 0.378046 55.845 -3.22541e-07 
147 1 0.428554 0.0714849 0.419876 55.845 -5.02692e-08 
148 1 0.464261 0.0714613 0.377978 55.845 -2.07829e-07 
149 1 0.464348 0.107139 0.419948 55.845 8.94119e-08 
150 1 0.428571 -1.63078e-05 0.419891 55.845 -4.77095e-08 
151 1 0.464287 -3.8853e-05 0.377908 55.845 -2.62577e-07 
152 1 0.46425 0.0356831 0.419876 55.845 -9.32814e-08 
239 1 0.392899 0.071466 0.294777 55.845 -4.69877e-07 
240 1 0.392825 0.107079 0.336556 55.845 2.8078e-07 
241 1 0.428641 0.1071 0.294898 55.845 -1.08209e-07 
246 1 0.392775 8.38114e-05 0.294734 55.845 -4.98274e-07 
247 1 0.39283 0.0357084 0.336766 55.845 4.90821e-07 
248 1 0.428536 0.0357713 0.29467 55.845 -7.79081e-07 
249 1 0.428539 0.0714123 0.336737 55.845 3.27838e-07 
250 1 0.464258 0.0714489 0.294778 55.845 -4.94388e-07 
251 1 0.464318 0.107196 0.336657 55.845 3.72548e-07 
252 1 0.428522 -4.13529e-06 0.33671 55.845 7.72351e-07 
253 1 0.464216 -1.36303e-05 0.294794 55.845 -6.15971e-07 
254 1 0.464245 0.0356943 0.336606 55.845 6.77998e-07 
342 1 0.392832 0.107094 0.252152 55.845 5.28877e-07 
349 1 0.392832 0.0357657 0.252091 55.845 4.37704e-07 
351 1 0.428619 0.0714339 0.252124 55.845 5.45742e-07 
353 1 0.464316 0.107232 0.252069 55.845 5.76769e-07 
354 1 0.428588 5.92443e-05 0.252143 55.845 4.36938e-07 
356 1 0.464203 0.0357111 0.252151 55.845 5.91074e-07 
1 1 1.51986e-05 0.178575 0.46129 55.845 -1.09576e-08 
2 1 0.0357014 0.214379 0.461173 55.845 -1.42008e-07 
4 1 0.0357763 0.142881 0.461361 55.845 -1.29867e-07 
5 1 0.0714648 0.17847 0.461233 55.845 -1.56927e-07 
6 1 0.107177 0.214255 0.461085 55.845 1.61176e-07 
10 1 0.107202 0.142779 0.461295 55.845 -1.34932e-07 
51 1 -4.89688e-05 0.178662 0.377896 55.845 -2.28528e-07 
52 1 1.87273e-05 0.214372 0.420033 55.845 3.84303e-08 
53 1 0.0357178 0.214299 0.378007 55.845 -2.40312e-07 
54 1 0.0357622 0.250114 0.419793 55.845 1.65026e-07 
56 1 3.32549e-05 0.142878 0.419813 55.845 -1.08945e-07 
57 1 0.0357841 0.142897 0.378035 55.845 -2.01553e-07 
58 1 0.0357081 0.178577 0.419921 55.845 -2.9436e-07 
59 1 0.0714561 0.178587 0.378054 55.845 -1.87255e-07 
60 1 0.07149 0.214337 0.419799 55.845 -3.09297e-07 
61 1 0.107166 0.214317 0.378008 55.845 -3.60227e-07 
62 1 0.107243 0.25006 0.41991 55.845 1.18102e-07 
68 1 0.071465 0.142794 0.420044 55.845 -1.45858e-07 
69 1 0.107227 0.14288 0.378103 55.845 -3.00852e-07 
70 1 0.107112 0.178578 0.419781 55.845 6.34409e-09 
153 1 -8.3965e-06 0.178606 0.29477 55.845 -1.25992e-07 
154 1 1.50697e-06 0.214333 0.33665 55.845 2.82831e-07 
155 1 0.0357828 0.214285 0.294888 55.845 -3.80042e-07 
156 1 0.0357313 0.250054 0.336753 55.845 2.72519e-07 
158 1 4.33487e-05 0.142873 0.336654 55.845 2.79021e-07 
159 1 0.0357336 0.142824 0.294788 55.845 1.26085e-07 
160 1 0.0357303 0.178547 0.336629 55.845 2.439e-07 
161 1 0.071522 0.178607 0.294832 55.845 -4.48298e-08 
162 1 0.0715268 0.214336 0.336709 55.845 3.65363e-07 
163 1 0.107224 0.21429 0.294807 55.845 -1.57832e-07 
164 1 0.107172 0.250046 0.336767 55.845 5.53563e-07 
170 1 0.0715172 0.142879 0.336691 55.845 6.32007e-07 
171 1 0.107197 0.142899 0.294766 55.845 -3.01165e-07 
172 1 0.107227 0.178525 0.336758 55.845 4.30676e-07 
256 1 2.80702e-05 0.214266 0.252176 55.845 1.67488e-07 
258 1 0.0357642 0.250012 0.252264 55.845 2.97413e-07 
260 1 -2.36208e-06 0.142922 0.252128 55.845 2.58321e-07 
262 1 0.0357728 0.178541 0.252148 55.845 -2.84021e-08 
264 1 0.0714256 0.214282 0.252188 55.845 6.95195e-08 
266 1 0.107224 0.249875 0.252169 55.845 3.79969e-07 
272 1 0.0714407 0.142843 0.252064 55.845 2.42372e-07 
274 1 0.107182 0.178615 0.25211 55.845 1.11295e-07 
11 1 0.142896 0.178635 0.461186 55.845 -2.48672e-08 
12 1 0.178643 0.214285 0.461247 55.845 -9.8214e-08 
17 1 0.178634 0.142959 0.461233 55.845 -1.91757e-07 
18 1 0.214368 0.178573 0.461053 55.845 -2.21766e-07 
19 1 0.25001 0.214234 0.461274 55.845 -5.13784e-07 
24 1 0.250045 0.142795 0.461178 55.845 -1.19182e-07 
71 1 0.14289 0.178583 0.377971 55.845 -2.27893e-07 
72 1 0.142888 0.214404 0.419908 55.845 8.93439e-08 
73 1 0.178517 0.214237 0.377976 55.845 -1.68112e-07 
82 1 0.142942 0.142919 0.41986 55.845 -8.20076e-08 
83 1 0.178586 0.142872 0.378079 55.845 -3.61841e-07 
84 1 0.178566 0.178666 0.419788 55.845 2.66615e-07 
85 1 0.21435 0.178604 0.37802 55.845 -3.93694e-07 
86 1 0.214378 0.214323 0.419826 55.845 -1.18898e-07 
87 1 0.250045 0.214249 0.377927 55.845 -4.66981e-07 
96 1 0.214317 0.142871 0.41973 55.845 1.16787e-07 
97 1 0.250043 0.142822 0.377793 55.845 -1.66117e-07 
98 1 0.249986 0.178594 0.419829 55.845 -8.40024e-08 
173 1 0.142917 0.178566 0.294621 55.845 -2.86481e-07 
174 1 0.14293 0.214302 0.336675 55.845 8.16683e-07 
175 1 0.178581 0.214277 0.294824 55.845 -3.23679e-07 
184 1 0.142939 0.142926 0.336588 55.845 3.06077e-07 
185 1 0.17862 0.142856 0.294663 55.845 -4.64487e-07 
186 1 0.178569 0.178512 0.336579 55.845 4.96423e-07 
187 1 0.214236 0.178612 0.294881 55.845 -6.97987e-07 
188 1 0.214274 0.214259 0.336718 55.845 5.7101e-07 
189 1 0.250013 0.214315 0.294663 55.845 -7.04019e-07 
198 1 0.214192 0.142907 0.336653 55.845 6.51072e-07 
199 1 0.249985 0.142825 0.294692 55.845 -3.12903e-07 
200 1 0.250062 0.178597 0.336589 55.845 2.20085e-07 
276 1 0.142973 0.214321 0.252117 55.845 7.34451e-07 
286 1 0.142909 0.14293 0.252104 55.845 5.06617e-07 
288 1 0.178578 0.178618 0.252008 55.845 6.20767e-07 
290 1 0.214234 0.214345 0.252184 55.845 4.92443e-07 
300 1 0.214263 0.142915 0.252076 55.845 8.08442e-07 
302 1 0.249901 0.178626 0.252158 55.845 2.54112e-07 
25 1 0.285709 0.178556 0.461279 55.845 -1.72038e-07 
26 1 0.321423 0.214242 0.461276 55.845 -8.21854e-08 
31 1 0.321415 0.142916 0.461238 55.845 -3.41576e-08 
32 1 0.357139 0.178509 0.461382 55.845 1.88116e-07 
99 1 0.28569 0.17859 0.377939 55.845 -3.11035e-07 
100 1 0.285723 0.214275 0.41979 55.845 -5.07381e-07 
101 1 0.321357 0.214286 0.377879 55.845 -2.40635e-07 
110 1 0.285693 0.14289 0.419869 55.845 -2.51152e-08 
111 1 0.321383 0.142868 0.377788 55.845 -1.80631e-07 
112 1 0.321358 0.17854 0.419852 55.845 4.18327e-08 
113 1 0.35708 0.178634 0.37797 55.845 -1.25499e-07 
114 1 0.357049 0.214243 0.419786 55.845 -1.25046e-07 
126 1 0.357177 0.142956 0.419811 55.845 1.91177e-07 
201 1 0.285703 0.178596 0.294679 55.845 -4.71504e-07 
202 1 0.285752 0.214293 0.336501 55.845 3.58282e-07 
203 1 0.321428 0.21438 0.294679 55.845 -1.12744e-07 
212 1 0.285748 0.142864 0.336709 55.845 6.73228e-07 
213 1 0.321368 0.142734 0.29463 55.845 -3.28621e-07 
214 1 0.321436 0.178603 0.336509 55.845 3.73602e-07 
215 1 0.357223 0.178617 0.294802 55.845 -1.09291e-08 