ITEM: TIMESTEP
4400
ITEM: NUMBER OF ATOMS
5880
ITEM: BOX BOUNDS pp pp ff
-27.9032 27.9032
-27.9032 27.9032
0 34.092
ITEM: ATOMS id type xs ys zs mass q 
259 1 -3.65919e-05 0.107157 0.20979 55.845 5.31364e-07 
267 1 7.86621e-06 0.0356644 0.209787 55.845 6.85445e-07 
269 1 0.0356635 0.0714468 0.209826 55.845 6.00639e-07 
271 1 0.0715218 0.107148 0.209727 55.845 8.70418e-07 
279 1 0.0357005 -2.28396e-05 0.209635 55.845 9.07135e-07 
281 1 0.0714416 0.0356615 0.209806 55.845 9.18123e-07 
283 1 0.107172 0.071489 0.20972 55.845 8.77772e-07 
293 1 0.10721 1.85232e-05 0.209687 55.845 5.99163e-07 
361 1 6.1936e-07 0.107112 0.1261 55.845 -8.34844e-07 
369 1 6.47923e-05 0.0356785 0.125959 55.845 -6.59701e-07 
370 1 8.73345e-05 0.0714314 0.167523 55.845 -5.22772e-07 
371 1 0.0357978 0.0715194 0.126018 55.845 -8.37386e-07 
372 1 0.0356617 0.107212 0.167425 55.845 -5.81805e-07 
373 1 0.0714118 0.10718 0.126002 55.845 -6.1333e-07 
380 1 -3.04609e-05 -6.90916e-05 0.16752 55.845 -2.17657e-07 
381 1 0.0357133 5.32585e-05 0.126037 55.845 -3.04679e-07 
382 1 0.0357052 0.0357549 0.167525 55.845 -2.74693e-07 
383 1 0.0714135 0.0357788 0.126037 55.845 -2.73081e-07 
384 1 0.0714469 0.0714315 0.167589 55.845 -3.35588e-07 
385 1 0.107227 0.0714251 0.126052 55.845 -3.41547e-07 
386 1 0.107299 0.107208 0.167494 55.845 -3.27208e-07 
394 1 0.0714675 3.95857e-06 0.167434 55.845 -2.59674e-07 
395 1 0.107132 -6.81283e-06 0.125989 55.845 -5.0543e-07 
396 1 0.107155 0.035729 0.167622 55.845 -4.4147e-07 
463 1 0 0.107143 0.0416667 55.845 4.21468e-07 
471 1 0 0.0357143 0.0416667 55.845 5.58002e-07 
472 1 -5.4873e-06 0.0713857 0.0847007 55.845 3.46811e-08 
473 1 0.0357143 0.0714286 0.0416667 55.845 2.98631e-07 
474 1 0.0357313 0.107181 0.0845178 55.845 6.42779e-08 
475 1 0.0714286 0.107143 0.0416667 55.845 3.96336e-07 
482 1 2.60726e-05 3.69829e-05 0.0846176 55.845 3.42141e-07 
483 1 0.0357143 0 0.0416667 55.845 6.44123e-07 
484 1 0.0357373 0.0357486 0.0846357 55.845 2.84188e-07 
485 1 0.0714286 0.0357143 0.0416667 55.845 4.41045e-07 
486 1 0.0714398 0.071502 0.0845296 55.845 -2.65189e-10 
487 1 0.107143 0.0714286 0.0416667 55.845 5.55939e-07 
488 1 0.107157 0.107161 0.0845579 55.845 2.61169e-07 
496 1 0.0714587 4.50155e-05 0.0845788 55.845 6.34631e-08 
497 1 0.107143 0 0.0416667 55.845 3.25717e-07 
498 1 0.107157 0.0357483 0.0846325 55.845 -5.07482e-08 
567 1 0 0.0714286 0 55.845 -4.28329e-07 
568 1 0.0357143 0.107143 0 55.845 -2.1581e-07 
572 1 0 0 0 55.845 -1.25702e-07 
573 1 0.0357143 0.0357143 0 55.845 -2.94213e-07 
574 1 0.0714286 0.0714286 0 55.845 -1.70769e-07 
575 1 0.107143 0.107143 0 55.845 -8.20366e-08 
579 1 0.0714286 0 0 55.845 -1.21871e-07 
580 1 0.107143 0.0357143 0 55.845 -1.09006e-07 
285 1 0.142821 0.10714 0.209914 55.845 9.38238e-07 
295 1 0.142885 0.035781 0.209801 55.845 6.0912e-07 
297 1 0.178521 0.0715099 0.209937 55.845 7.0675e-07 
299 1 0.214371 0.107187 0.20998 55.845 6.24814e-07 
307 1 0.178524 -7.76131e-07 0.20996 55.845 6.99706e-07 
309 1 0.214316 0.0356813 0.209909 55.845 8.80922e-07 
311 1 0.250014 0.0714298 0.209857 55.845 8.35765e-07 
387 1 0.142862 0.10712 0.126061 55.845 -4.09107e-07 
397 1 0.142928 0.0357361 0.125941 55.845 -5.38879e-07 
398 1 0.142871 0.0714796 0.167498 55.845 -3.2578e-07 
399 1 0.178637 0.0714365 0.125992 55.845 -4.19859e-07 
400 1 0.178576 0.107176 0.16753 55.845 -5.19344e-07 
401 1 0.214272 0.107116 0.12593 55.845 -6.33721e-07 
408 1 0.142845 4.1033e-05 0.167437 55.845 -5.81044e-07 
409 1 0.178602 7.18357e-05 0.126117 55.845 -7.29429e-07 
410 1 0.178642 0.0357906 0.167664 55.845 -3.83072e-07 
411 1 0.21435 0.0358012 0.125883 55.845 -3.98513e-07 
412 1 0.214272 0.0714473 0.167567 55.845 -3.75405e-07 
413 1 0.250051 0.0714424 0.126192 55.845 -3.59893e-07 
414 1 0.250113 0.107204 0.167552 55.845 -4.71128e-07 
424 1 0.214304 7.61236e-05 0.167565 55.845 -2.31889e-07 
426 1 0.250029 0.0357618 0.167571 55.845 -2.14139e-07 
489 1 0.142857 0.107143 0.0416667 55.845 6.45787e-07 
499 1 0.142857 0.0357143 0.0416667 55.845 4.61314e-07 
500 1 0.142889 0.0714628 0.0845446 55.845 -6.03571e-08 
501 1 0.178571 0.0714286 0.0416667 55.845 5.93323e-07 
502 1 0.178574 0.107182 0.0846856 55.845 7.9863e-08 
503 1 0.214286 0.107143 0.0416667 55.845 3.79608e-07 
510 1 0.142912 8.74238e-05 0.0845745 55.845 -1.90986e-07 
511 1 0.178571 0 0.0416667 55.845 4.47543e-07 
512 1 0.178586 0.0357254 0.0847 55.845 3.8274e-08 
513 1 0.214286 0.0357143 0.0416667 55.845 6.04448e-07 
514 1 0.214369 0.0714464 0.0845554 55.845 -4.3006e-08 
515 1 0.25 0.0714286 0.0416667 55.845 5.35671e-07 
516 1 0.249973 0.107123 0.084535 55.845 -1.3886e-07 
526 1 0.214325 3.53954e-05 0.0846008 55.845 2.92505e-07 
528 1 0.249947 0.0357219 0.0845197 55.845 2.21269e-07 
581 1 0.142857 0.0714286 0 55.845 -7.00026e-08 
582 1 0.178571 0.107143 0 55.845 -3.25378e-07 
586 1 0.142857 0 0 55.845 -2.05812e-07 
587 1 0.178571 0.0357143 0 55.845 -2.51721e-07 
588 1 0.214286 0.0714286 0 55.845 -2.22568e-07 
589 1 0.25 0.107143 0 55.845 -1.84754e-07 
594 1 0.214286 0 0 55.845 -3.43233e-07 
595 1 0.25 0.0357143 0 55.845 -2.301e-07 
313 1 0.28583 0.107184 0.209892 55.845 6.1346e-07 
323 1 0.249978 7.36412e-05 0.209764 55.845 1.02008e-06 
325 1 0.285803 0.0357545 0.209874 55.845 8.7593e-07 
327 1 0.321508 0.0714667 0.209906 55.845 6.6933e-07 
329 1 0.357176 0.107218 0.209744 55.845 5.58181e-07 
337 1 0.321438 4.10097e-05 0.209651 55.845 5.88917e-07 
339 1 0.357157 0.0356711 0.209867 55.845 8.40337e-07 
415 1 0.285801 0.107101 0.126059 55.845 -3.97318e-07 
425 1 0.250028 3.1184e-05 0.125966 55.845 -5.83024e-07 
427 1 0.285685 0.0357608 0.125925 55.845 -5.18389e-07 
428 1 0.285823 0.0714848 0.167515 55.845 -1.85512e-07 
429 1 0.321485 0.0714442 0.126008 55.845 -4.0886e-07 
430 1 0.321387 0.107117 0.167453 55.845 -1.59178e-07 
431 1 0.35717 0.107119 0.125964 55.845 -4.99699e-07 
439 1 0.321473 1.00959e-05 0.126031 55.845 -9.11783e-07 
440 1 0.321412 0.0357777 0.16754 55.845 -4.8765e-07 
441 1 0.357094 0.0357335 0.126117 55.845 -6.09622e-07 
442 1 0.357186 0.0714215 0.167628 55.845 -2.42719e-07 
517 1 0.285714 0.107143 0.0416667 55.845 3.78902e-07 
527 1 0.25 0 0.0416667 55.845 4.28567e-07 
529 1 0.285714 0.0357143 0.0416667 55.845 4.39445e-07 
530 1 0.285732 0.0714091 0.0845623 55.845 -3.57552e-08 
531 1 0.321429 0.0714286 0.0416667 55.845 3.664e-07 
532 1 0.32141 0.107125 0.0844453 55.845 -5.75435e-08 
533 1 0.357143 0.107143 0.0416667 55.845 3.80096e-07 
603 1 0.357143 0.0714286 0 55.845 -3.78209e-07 
541 1 0.321429 0 0.0416667 55.845 3.63623e-07 
542 1 0.321426 0.0356853 0.0846223 55.845 7.81307e-08 
543 1 0.357143 0.0357143 0.0416667 55.845 4.18307e-07 
544 1 0.357158 0.0713892 0.0845516 55.845 2.8511e-08 
602 1 0.321429 0.0357143 0 55.845 -4.03679e-07 
596 1 0.285714 0.0714286 0 55.845 -7.2848e-08 
597 1 0.321429 0.107143 0 55.845 -1.80294e-07 
612 1 0.464286 0.0357143 0 55.845 -3.04923e-07 
611 1 0.428571 0 0 55.845 -2.88928e-07 
610 1 0.464286 0.107143 0 55.845 -3.62155e-07 
609 1 0.428571 0.0714286 0 55.845 -3.19456e-07 
608 1 0.392857 0.0357143 0 55.845 -3.9083e-07 
341 1 0.392864 0.0713877 0.209866 55.845 9.33544e-07 
343 1 0.428564 0.107149 0.209844 55.845 6.61404e-07 
348 1 0.392891 8.03153e-05 0.20994 55.845 1.12531e-06 
350 1 0.428537 0.035752 0.209867 55.845 1.29153e-06 
352 1 0.464247 0.0714234 0.209871 55.845 1.18889e-06 
355 1 0.464353 -3.65246e-05 0.209867 55.845 1.26369e-06 
443 1 0.392817 0.071374 0.126037 55.845 -5.47602e-07 
444 1 0.392762 0.107109 0.167548 55.845 -5.03013e-07 
445 1 0.428512 0.107116 0.126139 55.845 -9.16785e-07 
604 1 0.392857 0.107143 0 55.845 -3.67481e-07 
450 1 0.392899 1.01134e-05 0.12604 55.845 -6.124e-07 
451 1 0.3928 0.035701 0.167664 55.845 -4.50323e-07 
452 1 0.428566 0.0356946 0.125992 55.845 -5.51792e-07 
453 1 0.428557 0.0714578 0.167543 55.845 -5.53407e-07 
454 1 0.464336 0.0714352 0.12602 55.845 -6.79465e-07 
455 1 0.464296 0.107112 0.167572 55.845 -4.79111e-07 
456 1 0.428605 7.87234e-06 0.167577 55.845 -6.97509e-07 
457 1 0.464356 3.78308e-05 0.125977 55.845 -5.57201e-07 
458 1 0.464316 0.0356959 0.167465 55.845 -5.64364e-07 
545 1 0.392857 0.0714286 0.0416667 55.845 4.56058e-07 
546 1 0.392849 0.107172 0.0843959 55.845 1.19912e-07 
547 1 0.428571 0.107143 0.0416667 55.845 2.92726e-07 
552 1 0.392857 0 0.0416667 55.845 6.94644e-07 
553 1 0.39285 0.0356719 0.0846548 55.845 6.74107e-08 
554 1 0.428571 0.0357143 0.0416667 55.845 5.96151e-07 
555 1 0.428539 0.0714613 0.0845934 55.845 1.82451e-07 
556 1 0.464286 0.0714286 0.0416667 55.845 4.87641e-07 
557 1 0.46425 0.107209 0.0846549 55.845 1.25849e-07 
558 1 0.428574 -6.30353e-05 0.0845694 55.845 8.45923e-08 
559 1 0.464286 0 0.0416667 55.845 6.79321e-07 
560 1 0.464272 0.0357134 0.0845418 55.845 2.39699e-07 
255 1 -3.75953e-05 0.178595 0.209781 55.845 7.46089e-07 
257 1 0.0356698 0.214263 0.209715 55.845 9.34218e-07 
261 1 0.0357026 0.142863 0.209717 55.845 6.98908e-07 
263 1 0.0713649 0.178579 0.209639 55.845 9.36161e-07 
265 1 0.107165 0.214311 0.209754 55.845 9.42569e-07 
273 1 0.107205 0.142889 0.209891 55.845 9.93891e-07 
357 1 -5.41827e-05 0.178625 0.126069 55.845 -7.14121e-07 
358 1 -0.000108354 0.214323 0.167592 55.845 -1.88843e-07 
359 1 0.0356075 0.214319 0.125931 55.845 -5.39001e-07 
360 1 0.0357642 0.249964 0.16751 55.845 -3.1483e-07 
362 1 -7.96344e-05 0.142807 0.167568 55.845 -2.27876e-07 
363 1 0.0356869 0.142917 0.126072 55.845 -8.00862e-07 
364 1 0.0357078 0.178611 0.167385 55.845 -1.80824e-07 
365 1 0.0713881 0.178593 0.126023 55.845 -4.83229e-07 
366 1 0.0713984 0.214394 0.167278 55.845 -1.61275e-07 
367 1 0.107165 0.214339 0.126048 55.845 -4.8951e-07 
368 1 0.107198 0.250039 0.167662 55.845 -4.36699e-07 
374 1 0.071538 0.142891 0.167579 55.845 -2.57812e-07 
375 1 0.107171 0.142809 0.126 55.845 -3.93189e-07 
376 1 0.107135 0.178559 0.167438 55.845 -3.79014e-07 
459 1 0 0.178571 0.0416667 55.845 6.06092e-07 
460 1 4.41381e-06 0.214324 0.0846208 55.845 1.5885e-07 
461 1 0.0357143 0.214286 0.0416667 55.845 5.29755e-07 
462 1 0.0356223 0.250071 0.0844963 55.845 3.47017e-08 
464 1 -2.30444e-05 0.142797 0.0845875 55.845 2.48256e-07 
465 1 0.0357143 0.142857 0.0416667 55.845 4.29998e-07 
466 1 0.0356175 0.178522 0.0844813 55.845 1.869e-07 
467 1 0.0714286 0.178571 0.0416667 55.845 5.50939e-07 
468 1 0.07142 0.214279 0.0845934 55.845 3.23495e-08 
469 1 0.107143 0.214286 0.0416667 55.845 5.91683e-07 
470 1 0.107155 0.249984 0.0846654 55.845 -2.19026e-08 
476 1 0.0714383 0.142831 0.084555 55.845 1.31784e-07 
477 1 0.107143 0.142857 0.0416667 55.845 5.48544e-07 
478 1 0.107129 0.178578 0.0845956 55.845 5.81169e-08 
561 1 0 0.214286 0 55.845 -3.22417e-07 
562 1 0.0357143 0.25 0 55.845 -4.02717e-07 
563 1 0 0.142857 0 55.845 -7.61189e-08 
564 1 0.0357143 0.178571 0 55.845 1.41695e-08 
565 1 0.0714286 0.214286 0 55.845 -2.30983e-07 
566 1 0.107143 0.25 0 55.845 -4.20829e-07 
569 1 0.0714286 0.142857 0 55.845 -4.08229e-08 
570 1 0.107143 0.178571 0 55.845 -2.66805e-07 
275 1 0.142899 0.178598 0.209827 55.845 8.45946e-07 
277 1 0.178595 0.214429 0.209908 55.845 1.04252e-06 
287 1 0.178581 0.142765 0.209827 55.845 8.0536e-07 
289 1 0.214326 0.178631 0.209945 55.845 1.06328e-06 
291 1 0.249973 0.214244 0.209879 55.845 1.27122e-06 
301 1 0.250047 0.142889 0.209799 55.845 8.55425e-07 
377 1 0.142862 0.178494 0.126046 55.845 -5.86526e-07 
378 1 0.142921 0.214309 0.167659 55.845 -5.29723e-07 
379 1 0.178557 0.214202 0.125926 55.845 -6.82809e-07 
388 1 0.14287 0.142806 0.167634 55.845 -3.45799e-07 
389 1 0.178642 0.142893 0.126065 55.845 -5.77113e-07 
390 1 0.178559 0.178524 0.167625 55.845 -5.17113e-07 
391 1 0.214271 0.178506 0.126174 55.845 -6.18059e-07 
392 1 0.214271 0.214275 0.167625 55.845 -5.20272e-07 
393 1 0.249991 0.214245 0.126047 55.845 -5.28057e-07 
402 1 0.214279 0.142821 0.167602 55.845 -5.41746e-07 
403 1 0.25 0.142808 0.126102 55.845 -5.28449e-07 
404 1 0.250046 0.178522 0.167565 55.845 -3.28656e-07 
479 1 0.142857 0.178571 0.0416667 55.845 5.3105e-07 
480 1 0.142881 0.214271 0.084611 55.845 -6.60778e-08 
481 1 0.178571 0.214286 0.0416667 55.845 6.33243e-07 
490 1 0.142821 0.142801 0.0845971 55.845 1.33021e-07 
491 1 0.178571 0.142857 0.0416667 55.845 4.99647e-07 
492 1 0.178577 0.178502 0.0845494 55.845 1.19273e-07 
493 1 0.214286 0.178571 0.0416667 55.845 5.73832e-07 
494 1 0.214301 0.214214 0.0847178 55.845 2.06362e-07 
495 1 0.25 0.214286 0.0416667 55.845 7.13126e-07 
504 1 0.214311 0.142878 0.084598 55.845 -7.20993e-08 
505 1 0.25 0.142857 0.0416667 55.845 3.7421e-07 
506 1 0.25003 0.178537 0.0843982 55.845 1.47393e-07 
571 1 0.142857 0.214286 0 55.845 -2.96603e-07 
576 1 0.142857 0.142857 0 55.845 -2.904e-07 
577 1 0.178571 0.178571 0 55.845 -4.7954e-07 
578 1 0.214286 0.214286 0 55.845 -3.68269e-07 
583 1 0.214286 0.142857 0 55.845 -3.72617e-07 
584 1 0.25 0.178571 0 55.845 -2.95201e-07 
303 1 0.285738 0.178609 0.20973 55.845 1.17577e-06 
305 1 0.321439 0.214263 0.209773 55.845 8.14112e-07 
315 1 0.321508 0.14285 0.209857 55.845 6.56415e-07 
317 1 0.357222 0.178533 0.209633 55.845 5.7012e-07 
405 1 0.285694 0.178587 0.125976 55.845 -3.67341e-07 
406 1 0.28573 0.214357 0.167504 55.845 -3.22494e-07 
407 1 0.321456 0.214331 0.126011 55.845 -4.25559e-07 
416 1 0.285831 0.142867 0.167614 55.845 -2.27604e-07 
417 1 0.321478 0.142909 0.125884 55.845 -4.32143e-07 
418 1 0.321478 0.178601 0.167573 55.845 -7.76074e-08 
419 1 0.357141 0.178622 0.125924 55.845 -3.8265e-07 
420 1 0.357196 0.21435 0.167625 55.845 -1.3441e-07 
432 1 0.357131 0.142934 0.167428 55.845 -1.96325e-07 
507 1 0.285714 0.178571 0.0416667 55.845 4.41364e-07 
508 1 0.285708 0.214343 0.0846 55.845 1.74615e-07 
509 1 0.321429 0.214286 0.0416667 55.845 3.97826e-07 
518 1 0.285716 0.142841 0.0845402 55.845 -1.84925e-07 
519 1 0.321429 0.142857 0.0416667 55.845 2.97904e-07 
520 1 0.321501 0.178578 0.0845534 55.845 -3.75973e-08 
521 1 0.357143 0.178571 0.0416667 55.845 3.6258e-07 
522 1 0.357157 0.214362 0.0845897 55.845 -4.68664e-08 
534 1 0.35714 0.142866 0.0844988 55.845 -4.39381e-09 
585 1 0.285714 0.214286 0 55.845 -3.08982e-07 
590 1 0.285714 0.142857 0 55.845 -1.40979e-07 
591 1 0.321429 0.178571 0 55.845 -2.30057e-07 
592 1 0.357143 0.214286 0 55.845 -2.29944e-07 
598 1 0.357143 0.142857 0 55.845 -2.03135e-07 
319 1 0.392839 0.214264 0.209756 55.845 6.84781e-07 
321 1 0.428577 0.250032 0.209865 55.845 6.19512e-07 
331 1 0.392905 0.14285 0.209853 55.845 3.83765e-07 
333 1 0.428641 0.178606 0.209818 55.845 5.74694e-07 
335 1 0.464355 0.214291 0.209786 55.845 4.76278e-07 
345 1 0.464293 0.142863 0.209792 55.845 5.15232e-07 
606 1 0.464286 0.178571 0 55.845 -2.21535e-07 
421 1 0.392799 0.214231 0.126051 55.845 -3.58773e-07 
422 1 0.392934 0.249947 0.167537 55.845 -1.91576e-07 
423 1 0.428595 0.249969 0.126001 55.845 -3.85182e-07 
433 1 0.39283 0.142783 0.126012 55.845 -6.96224e-07 
434 1 0.392859 0.178533 0.167539 55.845 -1.3121e-07 
435 1 0.428525 0.178545 0.126074 55.845 -6.03552e-07 
436 1 0.428617 0.214291 0.167738 55.845 2.38529e-09 
437 1 0.46425 0.214212 0.125965 55.845 -5.40811e-07 
605 1 0.428571 0.142857 0 55.845 -5.18952e-07 
446 1 0.428618 0.142823 0.167578 55.845 -4.98079e-07 
447 1 0.464313 0.142891 0.12596 55.845 -8.91389e-07 
448 1 0.464332 0.178527 0.167502 55.845 -2.50346e-07 
523 1 0.392857 0.214286 0.0416667 55.845 3.65998e-07 
524 1 0.392803 0.249993 0.0846227 55.845 -9.39537e-08 
525 1 0.428571 0.25 0.0416667 55.845 4.38024e-07 
535 1 0.392857 0.142857 0.0416667 55.845 2.55074e-07 
536 1 0.392869 0.178466 0.0847114 55.845 8.24289e-09 
537 1 0.428571 0.178571 0.0416667 55.845 1.99402e-07 
538 1 0.428487 0.214279 0.0846271 55.845 1.1495e-07 
539 1 0.464286 0.214286 0.0416667 55.845 3.33352e-07 
548 1 0.428589 0.142814 0.0846706 55.845 9.44793e-08 
549 1 0.464286 0.142857 0.0416667 55.845 2.65257e-07 
550 1 0.464296 0.17855 0.0846904 55.845 2.3019e-07 
593 1 0.392857 0.25 0 55.845 -1.03562e-07 
599 1 0.392857 0.178571 0 55.845 -3.15682e-07 
600 1 0.428571 0.214286 0 55.845 -4.56848e-08 
3 1 -4.16839e-05 0.107152 0.462061 55.845 -2.05393e-07 
7 1 1.02434e-05 0.0357584 0.462156 55.845 3.10566e-08 
8 1 0.0357179 0.0713396 0.461955 55.845 -5.45053e-08 
9 1 0.071335 0.107056 0.462053 55.845 1.78566e-07 
13 1 0.0357142 1.57623e-05 0.461987 55.845 2.81965e-07 
14 1 0.07143 0.0357449 0.462006 55.845 2.39926e-07 
15 1 0.10712 0.0714483 0.461973 55.845 2.48234e-07 
20 1 0.107179 1.77895e-06 0.461994 55.845 -1.27288e-07 
55 1 3.57962e-05 0.107142 0.379014 55.845 1.54652e-07 
63 1 -6.63261e-05 0.0357072 0.379152 55.845 3.32291e-07 
64 1 6.69066e-05 0.0713942 0.420204 55.845 -2.83513e-07 
65 1 0.0356801 0.0713757 0.379139 55.845 1.84857e-07 
66 1 0.0356036 0.107124 0.420254 55.845 -5.25233e-07 
67 1 0.0714343 0.107243 0.379122 55.845 2.97105e-07 
74 1 2.73422e-05 1.95515e-05 0.420247 55.845 1.27822e-07 
75 1 0.0356838 -9.11216e-06 0.378924 55.845 2.77586e-07 
76 1 0.0357151 0.0356603 0.420202 55.845 2.64768e-08 
77 1 0.071397 0.0357056 0.379088 55.845 2.83049e-07 
78 1 0.0714628 0.0715109 0.420139 55.845 -4.86191e-08 
79 1 0.107139 0.0714451 0.378935 55.845 2.32813e-07 
80 1 0.107141 0.107145 0.420358 55.845 -1.37311e-07 
88 1 0.0714113 -3.35323e-05 0.420256 55.845 -1.70921e-07 
89 1 0.107149 4.05704e-05 0.379105 55.845 -7.37214e-08 
90 1 0.107134 0.0356779 0.420353 55.845 -1.68431e-07 
157 1 7.40727e-06 0.107131 0.294582 55.845 -7.56382e-07 
165 1 -3.78718e-05 0.0357708 0.294702 55.845 -6.33848e-07 
166 1 -6.47916e-06 0.0714196 0.336977 55.845 6.8896e-08 
167 1 0.0357403 0.0714884 0.294615 55.845 -5.12261e-07 
168 1 0.0357399 0.1072 0.336999 55.845 -4.89903e-08 
169 1 0.0714143 0.107144 0.294831 55.845 -3.08106e-07 
176 1 -1.1807e-05 2.88736e-05 0.336976 55.845 2.90414e-07 
177 1 0.0356769 8.7083e-06 0.294632 55.845 -2.95105e-07 
178 1 0.0356705 0.0357666 0.336924 55.845 3.67931e-07 
179 1 0.0713615 0.0357301 0.294779 55.845 -2.97187e-07 
180 1 0.0714041 0.071467 0.337072 55.845 2.77998e-07 
181 1 0.107153 0.0714318 0.29476 55.845 -2.17566e-07 
182 1 0.107183 0.107231 0.337006 55.845 2.08577e-07 
190 1 0.0713657 3.24557e-05 0.336984 55.845 3.26593e-07 
191 1 0.107176 2.43317e-05 0.294726 55.845 -5.67945e-07 
192 1 0.107139 0.0356272 0.337124 55.845 2.12193e-07 
268 1 1.25787e-05 0.0714313 0.252142 55.845 -2.24226e-07 
270 1 0.0357885 0.107241 0.252246 55.845 -3.89954e-07 
278 1 6.68812e-06 8.44553e-05 0.252102 55.845 1.84799e-07 
280 1 0.035679 0.0357118 0.252193 55.845 -4.77699e-08 
282 1 0.0714649 0.0714278 0.252293 55.845 -1.48215e-07 
284 1 0.107081 0.107124 0.252172 55.845 -6.46561e-08 
292 1 0.0714477 3.31743e-05 0.252175 55.845 -2.03947e-07 
294 1 0.107109 0.0356074 0.252199 55.845 -3.0445e-07 
16 1 0.142799 0.107186 0.462058 55.845 3.35142e-07 
21 1 0.142918 0.0356915 0.46205 55.845 -5.78467e-08 
22 1 0.178592 0.0714331 0.462014 55.845 6.52428e-08 
23 1 0.214329 0.107108 0.462178 55.845 -4.27556e-08 
27 1 0.178542 -8.1369e-05 0.462025 55.845 4.23021e-08 
28 1 0.214362 0.0356571 0.461925 55.845 1.05823e-07 
29 1 0.250064 0.0714091 0.462198 55.845 6.86504e-08 
81 1 0.142908 0.107133 0.379211 55.845 3.72599e-07 
91 1 0.142805 0.0357124 0.379231 55.845 -1.21737e-08 
92 1 0.142849 0.0714285 0.420258 55.845 3.32017e-09 
93 1 0.178544 0.0714409 0.379205 55.845 2.58783e-07 
94 1 0.178535 0.107166 0.420445 55.845 -2.32331e-07 
95 1 0.214288 0.107172 0.379287 55.845 8.29239e-08 
102 1 0.142864 7.06591e-06 0.420366 55.845 -3.52354e-07 
103 1 0.178563 1.2231e-05 0.379119 55.845 2.74911e-08 
104 1 0.178645 0.0357448 0.42025 55.845 -1.66759e-07 
105 1 0.2143 0.0356817 0.379154 55.845 3.56135e-07 
106 1 0.214339 0.071406 0.420344 55.845 -1.23583e-08 
107 1 0.250006 0.071377 0.379173 55.845 2.31134e-07 
108 1 0.250081 0.107031 0.420248 55.845 -2.92073e-07 
118 1 0.214325 -2.18046e-05 0.420321 55.845 -3.12741e-08 
120 1 0.250073 0.0356393 0.420203 55.845 4.20387e-08 
183 1 0.142885 0.107143 0.294657 55.845 -2.00453e-07 
193 1 0.142839 0.0357472 0.294773 55.845 -6.55234e-07 
194 1 0.142897 0.0714437 0.337149 55.845 2.78742e-07 
195 1 0.178597 0.0714667 0.294658 55.845 -5.19239e-07 
196 1 0.178652 0.107175 0.337059 55.845 1.88649e-07 
197 1 0.214385 0.107203 0.294858 55.845 -6.6664e-07 
204 1 0.142936 -1.0231e-05 0.337081 55.845 -4.73501e-08 
205 1 0.178623 2.32807e-05 0.294725 55.845 -6.48931e-07 
206 1 0.178502 0.0356788 0.337057 55.845 1.92475e-07 
207 1 0.214309 0.0357537 0.294811 55.845 -3.98226e-07 
208 1 0.214193 0.0714264 0.337129 55.845 2.5909e-07 
209 1 0.250001 0.0714336 0.294912 55.845 -5.63609e-07 
210 1 0.250037 0.107103 0.337188 55.845 7.38102e-08 
220 1 0.214298 -1.59024e-05 0.337061 55.845 2.87109e-07 
222 1 0.25003 0.0356367 0.336998 55.845 5.08305e-07 
296 1 0.142843 0.0714339 0.252269 55.845 -1.13772e-07 
298 1 0.178606 0.107089 0.252288 55.845 -1.6769e-07 
306 1 0.142924 -4.89733e-05 0.252266 55.845 -3.89652e-07 
308 1 0.17858 0.0357271 0.252256 55.845 -1.61358e-07 
310 1 0.214267 0.0715035 0.25233 55.845 -2.31607e-07 
312 1 0.250073 0.107181 0.252245 55.845 -4.11821e-07 
322 1 0.214344 -1.18969e-05 0.25228 55.845 1.22289e-07 
324 1 0.249964 0.0356915 0.252352 55.845 -3.1387e-08 
30 1 0.285776 0.107093 0.462056 55.845 3.49232e-08 
35 1 0.250018 3.62912e-05 0.462179 55.845 1.32885e-07 
36 1 0.285685 0.0356181 0.462137 55.845 1.27171e-07 
37 1 0.321566 0.0713663 0.462001 55.845 1.78266e-08 
38 1 0.357211 0.10711 0.461963 55.845 2.19498e-07 
42 1 0.321489 -3.235e-05 0.462083 55.845 4.66076e-09 
43 1 0.357248 0.0356544 0.462008 55.845 6.36044e-08 
109 1 0.285821 0.107088 0.379339 55.845 7.98738e-08 
119 1 0.25 -8.54769e-05 0.379278 55.845 6.20259e-07 
121 1 0.285786 0.0357194 0.379083 55.845 4.26837e-07 
122 1 0.285694 0.0713587 0.420394 55.845 -2.44004e-08 
123 1 0.321525 0.0714317 0.379255 55.845 1.87982e-07 
124 1 0.321439 0.107113 0.420379 55.845 -2.75847e-07 
125 1 0.357244 0.107165 0.379223 55.845 1.12127e-07 
133 1 0.321405 -0.000112954 0.379234 55.845 3.69153e-07 
134 1 0.321506 0.0356341 0.420282 55.845 -2.17974e-07 
135 1 0.357221 0.0357731 0.379138 55.845 3.927e-07 
136 1 0.357248 0.0714197 0.420276 55.845 -1.94351e-07 
211 1 0.28577 0.107222 0.294859 55.845 -6.88152e-07 
221 1 0.250005 -6.08044e-05 0.294696 55.845 -3.18605e-07 
223 1 0.285787 0.0357725 0.294836 55.845 -4.10684e-07 
224 1 0.285743 0.0714957 0.337125 55.845 3.40529e-07 
225 1 0.321422 0.0713744 0.294773 55.845 -6.71831e-07 
226 1 0.321498 0.10711 0.337184 55.845 1.93823e-07 
227 1 0.357156 0.107153 0.294821 55.845 -5.64252e-07 
235 1 0.321437 -6.67428e-05 0.294806 55.845 -6.47023e-07 
236 1 0.321496 0.0356836 0.337143 55.845 4.13511e-08 
237 1 0.357205 0.0356441 0.294726 55.845 -5.61065e-07 
238 1 0.357189 0.0714505 0.336993 55.845 -1.65195e-08 
326 1 0.285649 0.0715125 0.252341 55.845 -2.64031e-07 
328 1 0.321434 0.107105 0.252385 55.845 -2.12381e-07 
338 1 0.321423 0.0356488 0.252313 55.845 -4.20578e-07 
340 1 0.357166 0.0714682 0.252204 55.845 -1.92158e-07 
44 1 0.392961 0.0713984 0.461914 55.845 1.80729e-07 
45 1 0.428583 0.107178 0.462059 55.845 1.37413e-07 
47 1 0.392858 -3.30839e-05 0.462065 55.845 1.06804e-07 
48 1 0.4286 0.0356756 0.46208 55.845 5.31066e-08 
49 1 0.464389 0.0713919 0.461962 55.845 2.0484e-07 
50 1 0.464357 3.95704e-05 0.462012 55.845 -1.55369e-07 
137 1 0.392882 0.0714229 0.379287 55.845 3.91647e-07 
138 1 0.392947 0.107164 0.420292 55.845 -2.54361e-07 
139 1 0.428616 0.107153 0.379057 55.845 1.52998e-07 
144 1 0.392917 -6.3537e-06 0.379276 55.845 7.23537e-07 
145 1 0.392961 0.0356626 0.420286 55.845 -2.57292e-07 
146 1 0.428604 0.0356823 0.379119 55.845 8.42524e-07 
147 1 0.42861 0.0713786 0.420202 55.845 -1.76521e-07 
148 1 0.464334 0.071397 0.379031 55.845 7.3288e-07 
149 1 0.464286 0.107042 0.420298 55.845 -2.65167e-07 
150 1 0.428615 -5.94116e-05 0.420091 55.845 -2.77262e-07 
151 1 0.464335 -4.97019e-05 0.379106 55.845 8.56841e-07 
152 1 0.464287 0.035704 0.420228 55.845 -3.93141e-07 
239 1 0.392933 0.0714438 0.294811 55.845 -4.74437e-07 
240 1 0.392891 0.107135 0.337167 55.845 -2.0549e-07 
241 1 0.428604 0.10713 0.294717 55.845 -7.39795e-07 
246 1 0.392816 -1.30281e-05 0.294683 55.845 -5.76255e-07 
247 1 0.392875 0.0357271 0.337144 55.845 -8.0789e-09 
248 1 0.428563 0.0356626 0.294648 55.845 -3.5319e-07 
249 1 0.428675 0.0713336 0.337107 55.845 1.18477e-08 
250 1 0.464317 0.0713983 0.294691 55.845 -3.17796e-07 
251 1 0.464335 0.107095 0.337101 55.845 -2.04019e-07 
252 1 0.428573 -4.63184e-05 0.337021 55.845 -1.83993e-07 
253 1 0.464395 -7.52049e-05 0.294813 55.845 -6.71807e-07 
254 1 0.464326 0.0356355 0.337015 55.845 6.7667e-08 
342 1 0.392879 0.107117 0.25238 55.845 -3.07968e-07 
349 1 0.392872 0.0357287 0.252363 55.845 -2.36359e-07 
351 1 0.428627 0.0713821 0.252239 55.845 -3.05716e-07 
353 1 0.464308 0.10713 0.252232 55.845 -1.98581e-07 
354 1 0.428586 1.41763e-05 0.252299 55.845 -5.64558e-07 
356 1 0.464269 0.0356896 0.252288 55.845 -5.3308e-07 
1 1 2.52768e-05 0.178533 0.462036 55.845 1.74803e-07 
2 1 0.0357156 0.214296 0.462023 55.845 1.13226e-07 
4 1 0.0357009 0.142847 0.462146 55.845 7.29599e-08 
5 1 0.0714689 0.17859 0.462128 55.845 1.80058e-07 
6 1 0.107187 0.21426 0.46208 55.845 1.23746e-07 
10 1 0.10712 0.142845 0.461991 55.845 3.22507e-07 
51 1 2.22947e-05 0.178576 0.37909 55.845 4.15156e-07 
52 1 8.3162e-05 0.214273 0.420217 55.845 -2.17637e-07 
53 1 0.0357574 0.214135 0.379161 55.845 3.90888e-07 
54 1 0.035656 0.250061 0.420196 55.845 -2.57076e-07 
56 1 4.86294e-06 0.142898 0.420078 55.845 -2.56374e-07 
57 1 0.0356784 0.142888 0.379206 55.845 3.02268e-07 
58 1 0.0356516 0.178514 0.420329 55.845 -1.58826e-07 
59 1 0.0714152 0.178574 0.37914 55.845 4.26882e-07 
60 1 0.0714633 0.214208 0.4203 55.845 -3.71087e-08 
61 1 0.107175 0.214336 0.379233 55.845 4.4886e-07 
62 1 0.10719 0.250013 0.420346 55.845 -2.239e-07 
68 1 0.0713886 0.14288 0.420347 55.845 -1.72846e-07 
69 1 0.107135 0.142895 0.379142 55.845 4.26404e-07 
70 1 0.107199 0.17853 0.420235 55.845 -2.29137e-07 
153 1 6.1546e-06 0.178568 0.294653 55.845 -6.11231e-07 
154 1 -1.05428e-05 0.21425 0.337044 55.845 1.35851e-07 
155 1 0.0357164 0.214249 0.29464 55.845 -4.77772e-07 
156 1 0.035721 0.249925 0.337163 55.845 2.62275e-07 
158 1 -1.38497e-05 0.142792 0.336865 55.845 4.44785e-08 
159 1 0.0357153 0.142955 0.294688 55.845 -5.85285e-07 
160 1 0.0357424 0.178506 0.33689 55.845 2.28174e-07 
161 1 0.0715012 0.178605 0.294667 55.845 -4.96598e-07 
162 1 0.0714735 0.214311 0.337119 55.845 1.89286e-07 
163 1 0.107156 0.214303 0.294691 55.845 -5.98996e-07 
164 1 0.107072 0.250013 0.337122 55.845 3.22016e-08 
170 1 0.071428 0.142822 0.336993 55.845 1.02301e-07 
171 1 0.107174 0.142902 0.294723 55.845 -3.28667e-07 
172 1 0.107143 0.178592 0.337104 55.845 -4.71619e-08 
256 1 3.1196e-05 0.214313 0.252312 55.845 -1.39994e-07 
258 1 0.0357004 0.249991 0.252256 55.845 -2.78645e-07 
260 1 -6.42335e-05 0.142906 0.252338 55.845 -3.34782e-07 
262 1 0.0357619 0.178523 0.252204 55.845 -1.80156e-07 
264 1 0.0714582 0.214291 0.252172 55.845 -2.30596e-07 
266 1 0.107038 0.249964 0.25221 55.845 -3.16147e-07 
272 1 0.0714357 0.142939 0.252297 55.845 -3.1266e-07 
274 1 0.107181 0.178622 0.252156 55.845 -2.98643e-07 
11 1 0.142909 0.17856 0.462036 55.845 4.66964e-08 
12 1 0.178556 0.214336 0.462054 55.845 -1.40831e-07 
17 1 0.178628 0.142911 0.46199 55.845 1.82315e-07 
18 1 0.214265 0.178609 0.462094 55.845 3.23447e-08 
19 1 0.250002 0.214294 0.462095 55.845 2.75236e-07 
24 1 0.250005 0.142752 0.462032 55.845 1.13119e-07 
71 1 0.14282 0.178646 0.379158 55.845 3.88951e-07 
72 1 0.142879 0.214214 0.42022 55.845 -3.74197e-07 
73 1 0.17853 0.21426 0.379103 55.845 6.45872e-07 
82 1 0.142843 0.142898 0.420255 55.845 -1.93298e-07 
83 1 0.178494 0.142859 0.379325 55.845 3.69333e-07 
84 1 0.178642 0.178576 0.420273 55.845 -4.10386e-07 
85 1 0.214313 0.178591 0.379296 55.845 6.21488e-07 
86 1 0.214346 0.214333 0.420392 55.845 -3.48221e-07 
87 1 0.250116 0.214239 0.379277 55.845 7.56759e-07 
96 1 0.214314 0.142783 0.4203 55.845 -3.17265e-07 
97 1 0.249976 0.142858 0.379278 55.845 2.55408e-07 
98 1 0.25006 0.178499 0.420388 55.845 -8.63752e-08 
173 1 0.142938 0.178621 0.294638 55.845 -6.2593e-07 
174 1 0.142959 0.214384 0.336997 55.845 -1.26906e-07 
175 1 0.178581 0.214334 0.29478 55.845 -5.93205e-07 
184 1 0.142846 0.14296 0.337072 55.845 -9.17832e-08 
185 1 0.178604 0.142777 0.294703 55.845 -5.06609e-07 
186 1 0.178557 0.178502 0.337074 55.845 -1.17306e-07 
187 1 0.214338 0.178557 0.294844 55.845 -4.6586e-07 
188 1 0.214355 0.214228 0.337308 55.845 -2.29501e-07 
189 1 0.250035 0.214271 0.294893 55.845 -3.48012e-07 
198 1 0.214283 0.142874 0.337199 55.845 -8.51616e-08 
199 1 0.25004 0.142867 0.294938 55.845 -5.96083e-07 
200 1 0.250105 0.178507 0.33711 55.845 1.60163e-07 
276 1 0.142872 0.214352 0.252118 55.845 -4.20558e-07 
286 1 0.142855 0.142931 0.252266 55.845 -1.78703e-07 
288 1 0.178697 0.178564 0.252305 55.845 -3.18872e-07 
290 1 0.214309 0.214258 0.252429 55.845 -3.94131e-07 
300 1 0.214395 0.142908 0.252282 55.845 -3.07127e-07 
302 1 0.250045 0.178528 0.2524 55.845 -1.20296e-07 
25 1 0.285768 0.178583 0.462171 55.845 3.00219e-07 
26 1 0.321495 0.214223 0.462146 55.845 1.53561e-07 
31 1 0.321544 0.142847 0.462121 55.845 2.31221e-07 
32 1 0.357181 0.178517 0.462195 55.845 2.74687e-07 
99 1 0.285832 0.178606 0.379341 55.845 4.21584e-07 
100 1 0.285762 0.214303 0.420542 55.845 -5.5208e-08 
101 1 0.321456 0.214195 0.379268 55.845 4.0084e-07 
110 1 0.285782 0.142795 0.420349 55.845 -1.52801e-07 
111 1 0.321529 0.142894 0.37928 55.845 1.30807e-07 
112 1 0.321462 0.178567 0.420304 55.845 -3.7508e-08 
113 1 0.357246 0.178564 0.379257 55.845 9.72814e-08 
114 1 0.357219 0.214199 0.420385 55.845 -1.27676e-08 
126 1 0.357178 0.142837 0.420453 55.845 -1.36189e-07 
201 1 0.285739 0.178577 0.29485 55.845 -2.68848e-07 
202 1 0.285722 0.214252 0.337083 55.845 1.23393e-07 
203 1 0.321464 0.214313 0.294813 55.845 -3.29679e-07 
212 1 0.285788 0.142875 0.337269 55.845 1.3876e-07 
213 1 0.321542 0.142836 0.294855 55.845 -4.27461e-07 
214 1 0.321468 0.178598 0.337037 55.845 3.14815e-07 
215 1 0.35723 0.178592 0.294764 55.845 -3.84455e-07 