ITEM: TIMESTEP
5100
ITEM: NUMBER OF ATOMS
5880
ITEM: BOX BOUNDS pp pp ff
-27.906 27.906
-27.906 27.906
0 34.092
ITEM: ATOMS id type xs ys zs mass q 
259 1 6.11881e-05 0.107207 0.209395 55.845 4.77256e-07 
267 1 2.52198e-05 0.0356937 0.209437 55.845 9.10563e-07 
269 1 0.0357363 0.0715018 0.209447 55.845 9.54991e-07 
271 1 0.0715799 0.107077 0.209531 55.845 7.28785e-07 
279 1 0.0357015 2.32888e-05 0.20959 55.845 6.30853e-07 
281 1 0.0714592 0.0358192 0.209581 55.845 4.86192e-07 
283 1 0.107162 0.0713344 0.209589 55.845 5.38765e-07 
293 1 0.10717 1.30124e-05 0.209591 55.845 6.59294e-07 
361 1 5.33352e-05 0.107107 0.126296 55.845 -7.61239e-08 
369 1 -6.2101e-05 0.0357814 0.126444 55.845 -9.16834e-08 
370 1 5.1177e-05 0.0714484 0.168139 55.845 -2.87847e-07 
371 1 0.0357717 0.0714403 0.12627 55.845 1.91525e-08 
372 1 0.0357998 0.107151 0.168188 55.845 1.31085e-07 
373 1 0.0714726 0.107196 0.126166 55.845 -5.46571e-08 
380 1 -3.94944e-05 -2.09835e-05 0.16811 55.845 -5.30571e-07 
381 1 0.0356182 2.52953e-05 0.126282 55.845 -6.68916e-07 
382 1 0.0357612 0.0357375 0.168207 55.845 -6.0096e-07 
383 1 0.0714618 0.0357009 0.126357 55.845 -5.38408e-07 
384 1 0.0714196 0.0714175 0.168042 55.845 -5.79213e-08 
385 1 0.107129 0.071426 0.126295 55.845 -4.34969e-07 
386 1 0.107192 0.107086 0.168109 55.845 1.03271e-07 
394 1 0.071409 3.3677e-05 0.168271 55.845 -5.605e-07 
395 1 0.107185 -2.54758e-05 0.12642 55.845 -3.35575e-07 
396 1 0.107234 0.0357428 0.168088 55.845 -2.94323e-07 
463 1 0 0.107143 0.0416667 55.845 8.46382e-07 
471 1 0 0.0357143 0.0416667 55.845 4.78406e-07 
472 1 7.40357e-07 0.0714217 0.084482 55.845 7.43217e-07 
473 1 0.0357143 0.0714286 0.0416667 55.845 8.10541e-07 
474 1 0.0357191 0.107124 0.084346 55.845 3.09134e-07 
475 1 0.0714286 0.107143 0.0416667 55.845 4.06789e-07 
482 1 9.27142e-06 -2.15519e-05 0.0845027 55.845 -9.2728e-08 
483 1 0.0357143 0 0.0416667 55.845 2.14793e-07 
484 1 0.0357055 0.0356908 0.0845107 55.845 7.06068e-08 
485 1 0.0714286 0.0357143 0.0416667 55.845 3.69066e-07 
486 1 0.0714361 0.0714379 0.084343 55.845 1.30945e-07 
487 1 0.107143 0.0714286 0.0416667 55.845 5.31118e-08 
488 1 0.107198 0.107187 0.0844457 55.845 -5.52591e-08 
496 1 0.0713859 2.28383e-05 0.0844733 55.845 -8.80429e-08 
497 1 0.107143 0 0.0416667 55.845 5.34053e-07 
498 1 0.107155 0.0357482 0.0844233 55.845 3.01438e-08 
567 1 0 0.0714286 0 55.845 3.89191e-08 
568 1 0.0357143 0.107143 0 55.845 -4.95681e-08 
572 1 0 0 0 55.845 -5.96686e-07 
573 1 0.0357143 0.0357143 0 55.845 -2.95759e-07 
574 1 0.0714286 0.0714286 0 55.845 -2.16498e-07 
575 1 0.107143 0.107143 0 55.845 -3.23636e-07 
579 1 0.0714286 0 0 55.845 -4.01e-07 
580 1 0.107143 0.0357143 0 55.845 -4.99132e-07 
285 1 0.142862 0.107098 0.209694 55.845 2.21061e-07 
295 1 0.142888 0.0356349 0.20961 55.845 8.98828e-07 
297 1 0.178623 0.0714034 0.209634 55.845 5.15976e-07 
299 1 0.214277 0.107109 0.20968 55.845 6.01669e-07 
307 1 0.178562 1.88919e-05 0.209469 55.845 1.23477e-06 
309 1 0.214185 0.0357303 0.209517 55.845 4.28583e-07 
311 1 0.249996 0.0714092 0.209702 55.845 3.78269e-08 
387 1 0.142893 0.107183 0.126295 55.845 -6.04841e-07 
397 1 0.14293 0.0356781 0.126241 55.845 -3.1794e-07 
398 1 0.142898 0.0714143 0.168059 55.845 -3.12966e-07 
399 1 0.178564 0.0714851 0.126339 55.845 -6.01183e-07 
400 1 0.178551 0.107148 0.168225 55.845 -5.16933e-08 
401 1 0.214327 0.107233 0.126443 55.845 -4.58188e-07 
408 1 0.142908 5.67759e-06 0.168074 55.845 -5.10127e-08 
409 1 0.17856 7.60743e-05 0.126211 55.845 -1.27773e-07 
410 1 0.178641 0.0357534 0.168098 55.845 -1.44981e-07 
411 1 0.214246 0.0357122 0.126251 55.845 -6.38278e-07 
412 1 0.214364 0.0715121 0.168083 55.845 -2.10504e-07 
413 1 0.24998 0.0714105 0.126217 55.845 -6.819e-07 
414 1 0.250101 0.107142 0.168113 55.845 3.47112e-07 
424 1 0.214302 4.3045e-05 0.168021 55.845 -2.38127e-07 
426 1 0.24999 0.0357516 0.168159 55.845 -1.87531e-07 
489 1 0.142857 0.107143 0.0416667 55.845 1.04485e-07 
499 1 0.142857 0.0357143 0.0416667 55.845 2.61879e-07 
500 1 0.142943 0.0714542 0.0844198 55.845 1.86368e-07 
501 1 0.178571 0.0714286 0.0416667 55.845 4.48195e-07 
502 1 0.178631 0.107137 0.0844311 55.845 3.91033e-07 
503 1 0.214286 0.107143 0.0416667 55.845 8.2893e-07 
510 1 0.142864 3.10473e-05 0.0843059 55.845 2.87453e-07 
511 1 0.178571 0 0.0416667 55.845 4.76077e-07 
512 1 0.178592 0.0357276 0.0843979 55.845 2.10273e-07 
513 1 0.214286 0.0357143 0.0416667 55.845 4.88793e-07 
514 1 0.214292 0.0713676 0.0843684 55.845 3.59522e-07 
515 1 0.25 0.0714286 0.0416667 55.845 4.52799e-07 
516 1 0.25002 0.107091 0.0844443 55.845 3.80647e-07 
526 1 0.214287 2.69991e-05 0.0845417 55.845 -6.81657e-08 
528 1 0.249972 0.0356301 0.0844709 55.845 -1.61667e-07 
581 1 0.142857 0.0714286 0 55.845 -2.64976e-07 
582 1 0.178571 0.107143 0 55.845 -1.35692e-07 
586 1 0.142857 0 0 55.845 -1.96198e-07 
587 1 0.178571 0.0357143 0 55.845 -2.51078e-07 
588 1 0.214286 0.0714286 0 55.845 -2.70772e-07 
589 1 0.25 0.107143 0 55.845 -3.66047e-07 
594 1 0.214286 0 0 55.845 -3.87613e-07 
595 1 0.25 0.0357143 0 55.845 -4.59707e-07 
313 1 0.285742 0.10721 0.209522 55.845 4.44782e-07 
323 1 0.250005 2.10803e-05 0.209618 55.845 4.39072e-07 
325 1 0.285679 0.0357147 0.209617 55.845 3.21354e-08 
327 1 0.321469 0.0714628 0.209729 55.845 1.1637e-07 
329 1 0.357198 0.107266 0.20953 55.845 2.36465e-07 
337 1 0.321419 -3.35229e-05 0.209449 55.845 5.09537e-07 
339 1 0.357131 0.0357291 0.20966 55.845 1.32829e-07 
415 1 0.285685 0.107104 0.126338 55.845 -5.41364e-07 
425 1 0.250074 -6.08643e-05 0.126404 55.845 -2.20223e-07 
427 1 0.285704 0.0357791 0.12634 55.845 -5.27825e-07 
428 1 0.285723 0.0714325 0.168231 55.845 1.81776e-07 
429 1 0.321418 0.0714278 0.126202 55.845 -8.46019e-07 
430 1 0.32139 0.107112 0.168006 55.845 4.50717e-07 
431 1 0.357069 0.107127 0.126528 55.845 -8.25243e-07 
439 1 0.321448 5.29494e-05 0.126332 55.845 -1.17364e-07 
440 1 0.321435 0.0358289 0.168232 55.845 4.73401e-07 
441 1 0.357111 0.0357151 0.126249 55.845 -5.4629e-07 
442 1 0.357038 0.0714314 0.168105 55.845 1.85435e-07 
517 1 0.285714 0.107143 0.0416667 55.845 3.03643e-07 
527 1 0.25 0 0.0416667 55.845 5.06311e-07 
529 1 0.285714 0.0357143 0.0416667 55.845 4.86192e-07 
530 1 0.28571 0.0714575 0.0843269 55.845 8.58278e-08 
531 1 0.321429 0.0714286 0.0416667 55.845 -1.40196e-07 
532 1 0.321425 0.107136 0.0842833 55.845 6.55572e-08 
533 1 0.357143 0.107143 0.0416667 55.845 -6.20002e-08 
603 1 0.357143 0.0714286 0 55.845 -4.56014e-07 
541 1 0.321429 0 0.0416667 55.845 8.81344e-07 
542 1 0.321317 0.0357223 0.0844048 55.845 1.90141e-07 
543 1 0.357143 0.0357143 0.0416667 55.845 3.61543e-07 
544 1 0.357151 0.071406 0.0844441 55.845 1.15067e-07 
602 1 0.321429 0.0357143 0 55.845 -4.66222e-09 
596 1 0.285714 0.0714286 0 55.845 -4.56288e-07 
597 1 0.321429 0.107143 0 55.845 -4.23275e-07 
612 1 0.464286 0.0357143 0 55.845 -5.7472e-07 
611 1 0.428571 0 0 55.845 -4.75627e-07 
610 1 0.464286 0.107143 0 55.845 -1.92041e-07 
609 1 0.428571 0.0714286 0 55.845 -5.10774e-07 
608 1 0.392857 0.0357143 0 55.845 -4.0766e-07 
341 1 0.392847 0.0714904 0.209432 55.845 -4.86978e-08 
343 1 0.428648 0.107156 0.209446 55.845 6.73955e-07 
348 1 0.392833 1.19185e-05 0.209658 55.845 -7.56671e-08 
350 1 0.428508 0.0357304 0.209477 55.845 -1.84963e-07 
352 1 0.46429 0.0715444 0.209577 55.845 1.02733e-07 
355 1 0.464305 -6.53264e-05 0.209699 55.845 -8.61889e-08 
443 1 0.39279 0.0713545 0.1264 55.845 -9.28415e-07 
444 1 0.392871 0.107164 0.168055 55.845 2.57871e-08 
445 1 0.428543 0.107078 0.126227 55.845 -4.093e-07 
604 1 0.392857 0.107143 0 55.845 -2.87417e-07 
450 1 0.392865 -0.00010549 0.126482 55.845 -5.47686e-07 
451 1 0.39273 0.0356477 0.168134 55.845 5.03528e-07 
452 1 0.428557 0.0356589 0.126393 55.845 -9.88301e-07 
453 1 0.428541 0.0714062 0.168056 55.845 1.88929e-07 
454 1 0.464315 0.0714036 0.126284 55.845 -6.24703e-07 
455 1 0.464254 0.107231 0.168021 55.845 1.71335e-07 
456 1 0.428503 -0.000107659 0.168088 55.845 9.00142e-07 
457 1 0.464215 -5.46594e-06 0.12641 55.845 -9.29701e-07 
458 1 0.464298 0.0357245 0.168109 55.845 5.74727e-07 
545 1 0.392857 0.0714286 0.0416667 55.845 1.62704e-07 
546 1 0.392805 0.107117 0.0844267 55.845 3.87051e-07 
547 1 0.428571 0.107143 0.0416667 55.845 5.69282e-07 
552 1 0.392857 0 0.0416667 55.845 7.99601e-07 
553 1 0.392915 0.0356657 0.0844027 55.845 2.32309e-07 
554 1 0.428571 0.0357143 0.0416667 55.845 6.05914e-07 
555 1 0.42854 0.0714036 0.084654 55.845 2.46481e-07 
556 1 0.464286 0.0714286 0.0416667 55.845 8.41046e-07 
557 1 0.464286 0.107234 0.0844582 55.845 2.02061e-07 
558 1 0.4286 -5.85902e-06 0.084339 55.845 2.76352e-08 
559 1 0.464286 0 0.0416667 55.845 8.15992e-07 
560 1 0.46436 0.0356765 0.0844986 55.845 -2.16518e-07 
255 1 1.1615e-05 0.178534 0.209673 55.845 6.98663e-07 
257 1 0.0357602 0.214285 0.209654 55.845 1.76313e-07 
261 1 0.0358211 0.142838 0.2095 55.845 6.82889e-07 
263 1 0.0714879 0.178642 0.209623 55.845 2.1238e-07 
265 1 0.107198 0.214338 0.209547 55.845 3.01494e-07 
273 1 0.107151 0.142887 0.209625 55.845 3.44636e-07 
357 1 5.66585e-05 0.178588 0.126386 55.845 -5.58494e-07 
358 1 -3.09599e-05 0.214221 0.168137 55.845 1.78019e-07 
359 1 0.0356867 0.21431 0.126448 55.845 -5.35452e-07 
360 1 0.0358184 0.250036 0.168185 55.845 1.16134e-07 
362 1 -2.68822e-05 0.142864 0.168283 55.845 -3.11002e-07 
363 1 0.0356428 0.142768 0.126279 55.845 -2.76128e-07 
364 1 0.0357906 0.178561 0.168165 55.845 -9.35387e-08 
365 1 0.0714985 0.178618 0.126412 55.845 -4.37059e-07 
366 1 0.0714985 0.214312 0.168185 55.845 -3.16538e-08 
367 1 0.107143 0.214272 0.126335 55.845 -4.64802e-07 
368 1 0.107155 0.24996 0.168039 55.845 3.38313e-07 
374 1 0.0714511 0.142856 0.168108 55.845 1.67488e-07 
375 1 0.107174 0.142824 0.126394 55.845 -3.43806e-07 
376 1 0.107239 0.178607 0.168181 55.845 2.83266e-07 
459 1 0 0.178571 0.0416667 55.845 1.67356e-07 
460 1 7.50098e-06 0.214328 0.0845093 55.845 2.40685e-07 
461 1 0.0357143 0.214286 0.0416667 55.845 6.70768e-07 
462 1 0.0357195 0.249935 0.0844372 55.845 3.25703e-07 
464 1 1.70182e-05 0.142888 0.0844472 55.845 -2.37102e-07 
465 1 0.0357143 0.142857 0.0416667 55.845 3.32672e-07 
466 1 0.0357213 0.178573 0.0845794 55.845 -3.15521e-07 
467 1 0.0714286 0.178571 0.0416667 55.845 4.24877e-07 
468 1 0.0714667 0.214322 0.0843665 55.845 9.81003e-08 
469 1 0.107143 0.214286 0.0416667 55.845 7.34928e-07 
470 1 0.107142 0.249983 0.0844673 55.845 7.45694e-08 
476 1 0.0713756 0.142914 0.0843908 55.845 -1.58153e-07 
477 1 0.107143 0.142857 0.0416667 55.845 2.59266e-07 
478 1 0.107165 0.178586 0.0843239 55.845 -2.45073e-08 
561 1 0 0.214286 0 55.845 -3.88556e-07 
562 1 0.0357143 0.25 0 55.845 3.95165e-08 
563 1 0 0.142857 0 55.845 -5.44485e-07 
564 1 0.0357143 0.178571 0 55.845 -6.46891e-07 
565 1 0.0714286 0.214286 0 55.845 -7.76548e-08 
566 1 0.107143 0.25 0 55.845 -2.19787e-07 
569 1 0.0714286 0.142857 0 55.845 -3.02721e-07 
570 1 0.107143 0.178571 0 55.845 -2.32108e-07 
275 1 0.142901 0.17855 0.209449 55.845 1.83432e-07 
277 1 0.178537 0.214292 0.209516 55.845 5.21646e-07 
287 1 0.178509 0.142782 0.209653 55.845 3.19597e-07 
289 1 0.214267 0.178573 0.209711 55.845 8.72235e-08 
291 1 0.249904 0.214253 0.209641 55.845 -2.40766e-07 
301 1 0.249957 0.142834 0.209702 55.845 3.87104e-07 
377 1 0.142866 0.178569 0.126213 55.845 -5.13883e-07 
378 1 0.142825 0.214312 0.16805 55.845 5.06101e-07 
379 1 0.178541 0.214343 0.12647 55.845 -6.1382e-07 
388 1 0.142945 0.142865 0.168197 55.845 -6.44235e-09 
389 1 0.17864 0.142877 0.126304 55.845 -7.46765e-07 
390 1 0.178594 0.178502 0.168216 55.845 3.70019e-07 
391 1 0.214274 0.178656 0.126276 55.845 -8.52907e-07 
392 1 0.214295 0.214287 0.168065 55.845 4.32839e-07 
393 1 0.250087 0.214241 0.126293 55.845 -7.6812e-07 
402 1 0.214227 0.142843 0.168124 55.845 2.41597e-07 
403 1 0.250002 0.142803 0.126369 55.845 -6.69912e-07 
404 1 0.249928 0.17855 0.168055 55.845 2.94191e-07 
479 1 0.142857 0.178571 0.0416667 55.845 5.776e-07 
480 1 0.142878 0.214349 0.0843471 55.845 2.21566e-07 
481 1 0.178571 0.214286 0.0416667 55.845 5.27391e-07 
490 1 0.142913 0.14292 0.0844572 55.845 2.55698e-07 
491 1 0.178571 0.142857 0.0416667 55.845 6.7945e-07 
492 1 0.178632 0.178637 0.0844952 55.845 1.26099e-07 
493 1 0.214286 0.178571 0.0416667 55.845 6.21355e-07 
494 1 0.21429 0.21436 0.0844605 55.845 -3.29039e-07 
495 1 0.25 0.214286 0.0416667 55.845 4.86648e-07 
504 1 0.214264 0.142864 0.0843711 55.845 4.16902e-07 
505 1 0.25 0.142857 0.0416667 55.845 7.25721e-07 
506 1 0.249982 0.178525 0.0842911 55.845 -1.72017e-07 
571 1 0.142857 0.214286 0 55.845 -4.88165e-07 
576 1 0.142857 0.142857 0 55.845 -1.74114e-07 
577 1 0.178571 0.178571 0 55.845 -4.09224e-07 
578 1 0.214286 0.214286 0 55.845 -7.12213e-07 
583 1 0.214286 0.142857 0 55.845 -2.95313e-07 
584 1 0.25 0.178571 0 55.845 -5.57088e-07 
303 1 0.285626 0.178544 0.209485 55.845 -3.25577e-08 
305 1 0.321461 0.214312 0.209539 55.845 2.47715e-07 
315 1 0.321412 0.142939 0.20953 55.845 3.6155e-07 
317 1 0.357178 0.178611 0.209375 55.845 5.1679e-07 
405 1 0.285654 0.178564 0.126267 55.845 -5.5847e-07 
406 1 0.285732 0.214248 0.168116 55.845 2.48708e-07 
407 1 0.321381 0.214205 0.126293 55.845 -3.28653e-07 
416 1 0.285679 0.142834 0.16809 55.845 4.0325e-07 
417 1 0.321418 0.142933 0.126268 55.845 -4.7328e-07 
418 1 0.321387 0.178513 0.167988 55.845 2.2635e-07 
419 1 0.357152 0.178551 0.126117 55.845 -2.39667e-07 
420 1 0.357086 0.214282 0.167958 55.845 -2.26275e-07 
432 1 0.357133 0.142891 0.168006 55.845 7.88472e-09 
507 1 0.285714 0.178571 0.0416667 55.845 5.06014e-07 
508 1 0.285794 0.214287 0.0843927 55.845 -2.6629e-07 
509 1 0.321429 0.214286 0.0416667 55.845 5.71302e-07 
518 1 0.285728 0.14283 0.0843784 55.845 2.94182e-07 
519 1 0.321429 0.142857 0.0416667 55.845 3.83577e-07 
520 1 0.321424 0.178548 0.0843071 55.845 3.9848e-07 
521 1 0.357143 0.178571 0.0416667 55.845 6.4724e-07 
522 1 0.357124 0.214364 0.0842833 55.845 1.60068e-07 
534 1 0.35707 0.142842 0.0843594 55.845 5.84167e-07 
585 1 0.285714 0.214286 0 55.845 -2.71323e-07 
590 1 0.285714 0.142857 0 55.845 -2.66423e-07 
591 1 0.321429 0.178571 0 55.845 -7.59855e-10 
592 1 0.357143 0.214286 0 55.845 -5.38365e-08 
598 1 0.357143 0.142857 0 55.845 -7.51818e-08 
319 1 0.392766 0.214342 0.20962 55.845 8.72924e-07 
321 1 0.428491 0.250047 0.209506 55.845 1.44966e-06 
331 1 0.39286 0.142827 0.209568 55.845 6.35902e-07 
333 1 0.428561 0.178628 0.209733 55.845 9.83081e-07 
335 1 0.464323 0.214269 0.209638 55.845 1.12566e-06 
345 1 0.464238 0.142901 0.209619 55.845 1.29457e-06 
606 1 0.464286 0.178571 0 55.845 -3.95865e-07 
421 1 0.392826 0.214319 0.126379 55.845 -9.28523e-08 
422 1 0.392895 0.249992 0.16812 55.845 -5.57467e-07 
423 1 0.428565 0.250099 0.126435 55.845 8.56979e-08 
433 1 0.392868 0.142786 0.126316 55.845 -3.72569e-07 
434 1 0.392818 0.178599 0.168016 55.845 -5.51661e-07 
435 1 0.428609 0.178644 0.126317 55.845 -1.5883e-07 
436 1 0.428517 0.214305 0.168255 55.845 -1.04974e-06 
437 1 0.464248 0.214309 0.12622 55.845 1.66401e-07 
605 1 0.428571 0.142857 0 55.845 -2.62439e-07 
446 1 0.428543 0.142902 0.168027 55.845 -1.66569e-07 
447 1 0.464332 0.142888 0.126261 55.845 -5.27338e-08 
448 1 0.464209 0.178597 0.168077 55.845 -7.79594e-07 
523 1 0.392857 0.214286 0.0416667 55.845 3.82596e-07 
524 1 0.392865 0.249989 0.0845327 55.845 -1.05233e-07 
525 1 0.428571 0.25 0.0416667 55.845 2.517e-07 
535 1 0.392857 0.142857 0.0416667 55.845 6.0009e-07 
536 1 0.392913 0.178609 0.0844658 55.845 5.04815e-07 
537 1 0.428571 0.178571 0.0416667 55.845 3.57587e-07 
538 1 0.428557 0.214355 0.084445 55.845 -2.18238e-07 
539 1 0.464286 0.214286 0.0416667 55.845 3.8547e-07 
548 1 0.428559 0.142877 0.0843879 55.845 3.58757e-07 
549 1 0.464286 0.142857 0.0416667 55.845 5.10934e-07 
550 1 0.464336 0.178599 0.0843402 55.845 -1.73061e-07 
593 1 0.392857 0.25 0 55.845 -4.92487e-07 
599 1 0.392857 0.178571 0 55.845 -1.81117e-07 
600 1 0.428571 0.214286 0 55.845 -4.11634e-07 
3 1 3.86408e-05 0.107124 0.464232 55.845 -1.34591e-07 
7 1 -5.26481e-06 0.0355781 0.464245 55.845 -2.76847e-07 
8 1 0.0357096 0.0713997 0.464209 55.845 1.85811e-07 
9 1 0.0714281 0.107117 0.464363 55.845 -7.7588e-08 
13 1 0.0357409 -4.49347e-05 0.464235 55.845 -5.29132e-07 
14 1 0.0713493 0.0356818 0.46427 55.845 -3.10594e-07 
15 1 0.10714 0.071344 0.464347 55.845 -3.78178e-07 
20 1 0.107159 -8.57619e-05 0.464131 55.845 -3.34926e-07 
55 1 9.27679e-06 0.107133 0.380135 55.845 1.45598e-07 
63 1 -5.34661e-05 0.0355749 0.380002 55.845 3.79138e-07 
64 1 -5.63948e-05 0.0713579 0.421843 55.845 1.83267e-07 
65 1 0.035758 0.0714532 0.380079 55.845 5.61636e-07 
66 1 0.0357297 0.107145 0.421902 55.845 9.85237e-08 
67 1 0.0715262 0.107121 0.380119 55.845 5.48478e-07 
74 1 9.20648e-06 -0.000120432 0.421891 55.845 -3.69999e-07 
75 1 0.0357285 2.00812e-05 0.380035 55.845 4.07632e-07 
76 1 0.0357148 0.0356943 0.421981 55.845 -4.83553e-07 
77 1 0.0714206 0.0356972 0.38 55.845 4.9244e-07 
78 1 0.0714398 0.0713936 0.421834 55.845 -6.17927e-07 
79 1 0.107181 0.0713397 0.38013 55.845 6.88766e-07 
80 1 0.107163 0.107182 0.421929 55.845 -7.80802e-07 
88 1 0.0713887 -1.97517e-05 0.421952 55.845 -2.9433e-07 
89 1 0.107172 -6.04916e-05 0.380086 55.845 4.15412e-07 
90 1 0.107101 0.0356872 0.42193 55.845 -5.24567e-07 
157 1 8.02215e-06 0.107119 0.294863 55.845 -1.28775e-07 
165 1 -0.000101125 0.0356359 0.294932 55.845 -2.32701e-07 
166 1 -2.39046e-05 0.0714689 0.338033 55.845 -2.28051e-07 
167 1 0.0356142 0.0714944 0.294836 55.845 -5.08786e-07 
168 1 0.0357621 0.107083 0.337988 55.845 1.22448e-07 
169 1 0.0714154 0.107185 0.294711 55.845 -1.87679e-07 
176 1 4.65906e-05 -3.87055e-05 0.33801 55.845 1.59176e-07 
177 1 0.0357184 1.27452e-05 0.294842 55.845 -5.45661e-07 
178 1 0.0356465 0.0357317 0.338055 55.845 -3.12954e-07 
179 1 0.0714288 0.0357469 0.294802 55.845 -5.7972e-07 
180 1 0.07139 0.0713765 0.337915 55.845 -1.94493e-08 
181 1 0.107128 0.0714042 0.294831 55.845 -5.62686e-07 
182 1 0.107069 0.107077 0.33797 55.845 1.48459e-07 
190 1 0.0714064 -7.06343e-05 0.338033 55.845 -1.14973e-07 
191 1 0.107222 1.11223e-05 0.295023 55.845 -2.7443e-07 
192 1 0.107106 0.0356339 0.337865 55.845 1.30608e-07 
268 1 -9.00391e-06 0.0714036 0.251541 55.845 -3.92451e-07 
270 1 0.0357011 0.107222 0.251594 55.845 -5.0891e-08 
278 1 -2.97987e-05 -2.84703e-05 0.251663 55.845 -5.5483e-08 
280 1 0.0356437 0.0357441 0.25165 55.845 -2.5495e-07 
282 1 0.0713868 0.0714327 0.251458 55.845 -1.10151e-07 
284 1 0.107209 0.107152 0.251664 55.845 -1.04959e-07 
292 1 0.0713955 3.01257e-05 0.251734 55.845 -4.35791e-07 
294 1 0.107099 0.0356681 0.251699 55.845 -1.27997e-07 
16 1 0.142932 0.107199 0.464236 55.845 -3.70315e-07 
21 1 0.142858 0.0356957 0.464222 55.845 -2.04334e-07 
22 1 0.178614 0.0714915 0.464159 55.845 -2.23768e-07 
23 1 0.214294 0.107207 0.464161 55.845 -7.90402e-08 
27 1 0.178478 -4.17093e-05 0.464351 55.845 -2.17221e-08 
28 1 0.214281 0.0357358 0.464172 55.845 -4.30635e-07 
29 1 0.25 0.0714617 0.464257 55.845 -4.77078e-07 
81 1 0.142851 0.107157 0.380028 55.845 2.4527e-07 
91 1 0.142881 0.0357022 0.379874 55.845 7.01551e-07 
92 1 0.142759 0.071418 0.421925 55.845 -5.8448e-07 
93 1 0.178564 0.0714504 0.379951 55.845 4.20013e-07 
94 1 0.1786 0.10726 0.421754 55.845 -1.26071e-07 
95 1 0.214322 0.107137 0.380021 55.845 4.53275e-07 
102 1 0.142892 2.53047e-05 0.421869 55.845 1.1799e-07 
103 1 0.178604 8.30898e-05 0.38008 55.845 4.01827e-07 
104 1 0.178527 0.0357526 0.421811 55.845 -3.02972e-08 
105 1 0.214335 0.0356966 0.379975 55.845 1.25196e-07 
106 1 0.214291 0.0715196 0.421965 55.845 1.0087e-07 
107 1 0.250046 0.0714955 0.37999 55.845 1.61434e-07 
108 1 0.250103 0.107142 0.421884 55.845 4.44118e-07 
118 1 0.214295 -3.42365e-05 0.421923 55.845 -2.94374e-07 
120 1 0.250087 0.0357868 0.421848 55.845 -5.41191e-07 
183 1 0.142878 0.107152 0.294903 55.845 -6.95811e-07 
193 1 0.142846 0.0357414 0.294784 55.845 -1.35081e-08 
194 1 0.142858 0.071424 0.33802 55.845 2.21968e-07 
195 1 0.178622 0.0714811 0.294881 55.845 -5.71923e-07 
196 1 0.17866 0.107274 0.337863 55.845 -3.15109e-08 
197 1 0.214337 0.1071 0.294812 55.845 -4.44583e-07 
204 1 0.142924 3.83932e-05 0.337966 55.845 2.85288e-07 
205 1 0.178694 -5.49256e-06 0.294904 55.845 -4.63477e-08 
206 1 0.178719 0.0357319 0.337891 55.845 4.1468e-07 
207 1 0.214325 0.0357709 0.294715 55.845 -5.77713e-07 
208 1 0.21432 0.0714083 0.337994 55.845 1.19211e-07 
209 1 0.250024 0.0714281 0.294754 55.845 -5.23988e-07 
210 1 0.249985 0.107147 0.337975 55.845 6.84208e-07 
220 1 0.214322 -4.06827e-06 0.338159 55.845 -1.82139e-07 
222 1 0.249966 0.035766 0.337932 55.845 -3.4334e-07 
296 1 0.142856 0.0714677 0.251643 55.845 -1.54259e-07 
298 1 0.178563 0.1071 0.251474 55.845 -2.74624e-07 
306 1 0.142968 -3.93803e-05 0.251582 55.845 -2.61754e-08 
308 1 0.178557 0.0357143 0.25165 55.845 -1.81798e-08 
310 1 0.214327 0.0714083 0.251581 55.845 -5.08421e-08 
312 1 0.249976 0.107193 0.251532 55.845 5.12171e-07 
322 1 0.21431 6.87198e-06 0.251787 55.845 -5.63665e-07 
324 1 0.249986 0.0356861 0.251665 55.845 -5.20645e-07 
30 1 0.285709 0.107132 0.46417 55.845 -6.20876e-07 
35 1 0.250008 -2.55362e-05 0.464276 55.845 -3.98373e-07 
36 1 0.285789 0.0356644 0.46437 55.845 -4.63544e-07 
37 1 0.321444 0.071482 0.464257 55.845 -6.35195e-07 
38 1 0.357232 0.107126 0.464225 55.845 -4.62127e-07 
42 1 0.32141 -1.09634e-05 0.464405 55.845 1.97498e-09 
43 1 0.357137 0.035761 0.464217 55.845 -3.12472e-07 
109 1 0.285725 0.107188 0.380072 55.845 1.68325e-07 
119 1 0.249995 2.78984e-05 0.380003 55.845 6.51874e-09 
121 1 0.285752 0.0357607 0.379988 55.845 3.49429e-08 
122 1 0.285674 0.0713496 0.421996 55.845 -3.19411e-07 
123 1 0.321383 0.0714231 0.380131 55.845 -2.49775e-08 
124 1 0.32144 0.107181 0.42181 55.845 -1.23539e-07 
125 1 0.357121 0.107112 0.379878 55.845 -5.74469e-08 
133 1 0.321421 1.0085e-05 0.380139 55.845 5.89469e-07 
134 1 0.321398 0.0356866 0.421926 55.845 -9.7228e-08 
135 1 0.357113 0.035705 0.380096 55.845 7.67891e-08 
136 1 0.35716 0.0714544 0.421935 55.845 -2.66613e-07 
211 1 0.285704 0.107134 0.294807 55.845 -4.91569e-07 
221 1 0.250064 6.70268e-05 0.294892 55.845 -4.409e-07 
223 1 0.285761 0.0357048 0.294825 55.845 -6.11837e-07 
224 1 0.285726 0.0714907 0.337851 55.845 3.59628e-07 
225 1 0.321473 0.0714673 0.294877 55.845 -8.47327e-07 
226 1 0.321366 0.107189 0.338006 55.845 4.5726e-07 
227 1 0.357061 0.107175 0.294698 55.845 -1.00256e-06 
235 1 0.321436 -4.36887e-05 0.294898 55.845 -1.29134e-07 
236 1 0.321464 0.0357987 0.338128 55.845 4.56475e-07 
237 1 0.357138 0.0357996 0.294989 55.845 -4.29936e-07 
238 1 0.357185 0.0715025 0.338133 55.845 2.3451e-07 
326 1 0.2857 0.0714396 0.251662 55.845 2.09416e-07 
328 1 0.321465 0.107194 0.251529 55.845 3.22369e-07 
338 1 0.321418 0.0356302 0.251693 55.845 1.20637e-08 
340 1 0.357242 0.0714816 0.251672 55.845 1.03501e-07 
44 1 0.392898 0.0714368 0.464221 55.845 -5.30288e-07 
45 1 0.428573 0.107106 0.464295 55.845 -1.25723e-07 
47 1 0.393007 5.57299e-05 0.464148 55.845 -2.63359e-07 
48 1 0.42862 0.0356647 0.46413 55.845 -4.13661e-07 
49 1 0.464378 0.0714047 0.464176 55.845 -3.81899e-07 
50 1 0.464243 -1.73129e-05 0.464094 55.845 -6.42819e-07 
137 1 0.392793 0.0714995 0.380036 55.845 2.59513e-08 
138 1 0.392883 0.107146 0.421769 55.845 -1.52734e-08 
139 1 0.428667 0.107177 0.379995 55.845 6.68083e-07 
144 1 0.392823 -1.23825e-05 0.380014 55.845 -6.90905e-09 
145 1 0.392898 0.0357723 0.42188 55.845 2.83888e-08 
146 1 0.428609 0.0357081 0.380072 55.845 -2.9263e-08 
147 1 0.428571 0.0714681 0.421844 55.845 5.60871e-08 
148 1 0.464336 0.0714028 0.379972 55.845 3.75498e-07 
149 1 0.464285 0.107119 0.421946 55.845 2.06989e-07 
150 1 0.428506 -2.64584e-06 0.421839 55.845 3.4589e-07 
151 1 0.464346 5.45203e-06 0.380117 55.845 -6.95792e-08 
152 1 0.464301 0.0357964 0.421874 55.845 9.48628e-08 
239 1 0.392832 0.071426 0.294909 55.845 -4.33832e-07 
240 1 0.392868 0.107165 0.338039 55.845 1.48485e-07 
241 1 0.428604 0.107158 0.294694 55.845 2.42243e-07 
246 1 0.392839 3.00482e-05 0.295008 55.845 -1.34633e-07 
247 1 0.392908 0.0358124 0.338279 55.845 1.46228e-07 
248 1 0.428581 0.0356701 0.294977 55.845 -2.86261e-07 
249 1 0.42852 0.0713896 0.337953 55.845 6.7338e-08 
250 1 0.464374 0.0714244 0.294844 55.845 -3.16542e-07 
251 1 0.464336 0.107104 0.338101 55.845 4.51084e-07 
252 1 0.428541 5.26553e-05 0.338074 55.845 -1.53626e-07 
253 1 0.464309 -3.41834e-05 0.294934 55.845 1.93473e-07 
254 1 0.464335 0.0357041 0.337945 55.845 -3.60674e-07 
342 1 0.392872 0.107175 0.251547 55.845 1.13429e-07 
349 1 0.39283 0.0357077 0.251753 55.845 2.0089e-07 
351 1 0.42856 0.0714344 0.251571 55.845 7.35203e-08 
353 1 0.464315 0.107177 0.251724 55.845 1.83378e-08 
354 1 0.428528 -2.23563e-05 0.251759 55.845 -9.86938e-08 
356 1 0.464283 0.0357652 0.251557 55.845 -2.84686e-07 
1 1 -3.80017e-05 0.178634 0.464066 55.845 -5.97952e-07 
2 1 0.0356895 0.214211 0.464193 55.845 -2.86903e-07 
4 1 0.0357741 0.142794 0.464286 55.845 -3.24241e-07 
5 1 0.0714749 0.17856 0.464196 55.845 -3.48242e-07 
6 1 0.107197 0.214465 0.464191 55.845 -2.90209e-07 
10 1 0.107153 0.142854 0.464261 55.845 -3.60579e-07 
51 1 8.58667e-05 0.178491 0.380082 55.845 -5.45002e-08 
52 1 -0.000103005 0.214249 0.42191 55.845 3.11593e-07 
53 1 0.035724 0.21431 0.380115 55.845 -9.70586e-08 
54 1 0.0357038 0.249975 0.421988 55.845 -8.58525e-08 
56 1 9.30891e-08 0.142837 0.421823 55.845 1.20862e-07 
57 1 0.0357886 0.142784 0.380126 55.845 3.91949e-07 
58 1 0.0356847 0.178576 0.421766 55.845 1.29472e-07 
59 1 0.0714614 0.178566 0.380009 55.845 1.95464e-07 
60 1 0.0714557 0.214266 0.421957 55.845 2.94091e-07 
61 1 0.107104 0.214332 0.380173 55.845 1.51897e-08 
62 1 0.107184 0.250082 0.42186 55.845 1.71374e-07 
68 1 0.0714544 0.142814 0.421837 55.845 -2.42825e-07 
69 1 0.107156 0.142868 0.380125 55.845 3.32066e-07 
70 1 0.107166 0.178597 0.421962 55.845 -1.86528e-07 
153 1 2.67439e-06 0.178581 0.29481 55.845 1.86282e-07 
154 1 4.32688e-05 0.214291 0.337974 55.845 4.01454e-08 
155 1 0.0357693 0.214334 0.294945 55.845 -3.64143e-07 
156 1 0.0357975 0.250043 0.338054 55.845 -1.53813e-07 
158 1 1.10511e-05 0.142825 0.338078 55.845 1.1733e-07 
159 1 0.03574 0.142743 0.294857 55.845 1.28826e-07 
160 1 0.0357906 0.17857 0.337953 55.845 1.9514e-07 
161 1 0.0715995 0.178586 0.29486 55.845 -1.13029e-07 
162 1 0.0714865 0.214236 0.338133 55.845 -1.45884e-07 
163 1 0.107155 0.214429 0.294761 55.845 6.63009e-08 
164 1 0.107094 0.24997 0.33804 55.845 -7.48426e-08 
170 1 0.0714602 0.142835 0.338073 55.845 2.35039e-07 
171 1 0.107222 0.142898 0.294918 55.845 -4.1122e-07 
172 1 0.10719 0.178655 0.337948 55.845 1.63554e-07 
256 1 5.00774e-05 0.214261 0.251624 55.845 -5.05249e-08 
258 1 0.0357179 0.24996 0.2516 55.845 -5.72237e-07 
260 1 8.17841e-05 0.14286 0.251826 55.845 -2.33738e-07 
262 1 0.0358276 0.178613 0.251734 55.845 -1.40526e-07 
264 1 0.071511 0.214328 0.251633 55.845 -5.75171e-07 
266 1 0.107156 0.250152 0.251706 55.845 -5.00035e-07 
272 1 0.0714867 0.142861 0.251638 55.845 2.76718e-08 
274 1 0.107186 0.178599 0.251544 55.845 -2.30592e-07 
11 1 0.142873 0.178576 0.464284 55.845 -2.53044e-07 
12 1 0.178536 0.214355 0.464153 55.845 -4.67322e-07 
17 1 0.178571 0.142974 0.464283 55.845 -3.72335e-07 
18 1 0.214258 0.17858 0.464169 55.845 -6.0858e-07 
19 1 0.249967 0.214383 0.464069 55.845 -8.7788e-07 
24 1 0.250065 0.142858 0.464079 55.845 -3.45496e-07 
71 1 0.14288 0.178559 0.380023 55.845 -5.41102e-09 
72 1 0.142893 0.214321 0.421848 55.845 5.43732e-07 
73 1 0.178562 0.214337 0.380116 55.845 -1.01836e-07 
82 1 0.142939 0.142917 0.421929 55.845 -1.32332e-07 
83 1 0.178511 0.142813 0.380023 55.845 6.76925e-08 
84 1 0.178534 0.178546 0.421908 55.845 3.51134e-07 
85 1 0.214249 0.178535 0.380045 55.845 -4.31612e-07 
86 1 0.214284 0.214286 0.42178 55.845 1.93544e-07 
87 1 0.249988 0.214287 0.380071 55.845 -5.07871e-07 
96 1 0.21428 0.142858 0.421795 55.845 5.04308e-07 
97 1 0.249962 0.142894 0.380124 55.845 2.33244e-07 
98 1 0.249943 0.178537 0.421946 55.845 5.00249e-08 
173 1 0.142828 0.178503 0.294811 55.845 -1.07584e-07 
174 1 0.142894 0.214418 0.337984 55.845 2.90268e-07 
175 1 0.178584 0.21428 0.29478 55.845 3.10819e-07 
184 1 0.142817 0.142853 0.338119 55.845 -8.54818e-08 
185 1 0.178535 0.142903 0.294774 55.845 -5.8739e-07 
186 1 0.178596 0.178564 0.338027 55.845 4.54224e-08 
187 1 0.214202 0.178649 0.294834 55.845 -3.14495e-07 
188 1 0.214343 0.21432 0.338078 55.845 -1.66683e-07 
189 1 0.249957 0.214303 0.294896 55.845 -3.74408e-07 
198 1 0.214271 0.14289 0.337874 55.845 1.53265e-07 
199 1 0.249992 0.142891 0.294751 55.845 -2.09377e-07 
200 1 0.249997 0.178587 0.338049 55.845 -4.53394e-08 
276 1 0.142831 0.214312 0.251552 55.845 -4.06606e-08 
286 1 0.142818 0.142843 0.251526 55.845 -3.83454e-07 
288 1 0.178537 0.178543 0.251659 55.845 -2.63404e-07 
290 1 0.214216 0.214314 0.251645 55.845 -3.35817e-07 
300 1 0.214279 0.142811 0.251681 55.845 -1.02469e-07 
302 1 0.249997 0.178644 0.251643 55.845 -4.03319e-07 
25 1 0.285736 0.178595 0.464261 55.845 -5.43946e-07 
26 1 0.321381 0.214321 0.464256 55.845 -3.36287e-07 
31 1 0.321478 0.142906 0.464102 55.845 -3.16941e-07 
32 1 0.357236 0.17857 0.464041 55.845 1.1078e-07 
99 1 0.285648 0.178592 0.380036 55.845 -8.6637e-08 
100 1 0.285717 0.21436 0.421856 55.845 -4.09398e-08 
101 1 0.321498 0.214296 0.379849 55.845 3.60134e-07 
110 1 0.285689 0.142926 0.421942 55.845 2.20558e-07 
111 1 0.32141 0.142937 0.380075 55.845 -2.81015e-09 
112 1 0.32142 0.178689 0.421841 55.845 1.9989e-08 
113 1 0.35714 0.1786 0.379899 55.845 2.70979e-07 
114 1 0.357164 0.214307 0.421844 55.845 -9.45297e-08 
126 1 0.357101 0.14284 0.421849 55.845 -6.71877e-09 
201 1 0.285746 0.178649 0.294914 55.845 -3.7309e-07 
202 1 0.28574 0.214296 0.338026 55.845 -3.95513e-08 
203 1 0.321329 0.214334 0.294735 55.845 -8.46921e-08 
212 1 0.285727 0.142826 0.337859 55.845 7.41757e-07 
213 1 0.32144 0.142903 0.294761 55.845 -6.261e-07 
214 1 0.321474 0.178658 0.33794 55.845 2.82751e-07 
215 1 0.357082 0.178619 0.294742 55.845 -6.11153e-07 