ITEM: TIMESTEP
8300
ITEM: NUMBER OF ATOMS
5880
ITEM: BOX BOUNDS pp pp ff
-27.8947 27.8947
-27.8947 27.8947
0 34.092
ITEM: ATOMS id type xs ys zs mass q 
259 1 -6.66201e-05 0.107199 0.211656 55.845 -4.81709e-08 
267 1 2.05333e-05 0.0356892 0.211925 55.845 1.75062e-07 
269 1 0.0356807 0.0713323 0.211621 55.845 3.06171e-08 
271 1 0.0714058 0.107039 0.211733 55.845 2.21014e-08 
279 1 0.0357295 -3.86883e-05 0.211845 55.845 2.40028e-07 
281 1 0.0714228 0.0355886 0.211854 55.845 -2.9268e-08 
283 1 0.107288 0.0715357 0.211898 55.845 1.45375e-07 
293 1 0.107089 8.28097e-05 0.211731 55.845 -6.80524e-09 
361 1 -0.000113626 0.107081 0.126091 55.845 -2.63205e-07 
369 1 -2.0589e-06 0.0357079 0.126378 55.845 -4.92852e-08 
370 1 -0.000158779 0.0713667 0.169405 55.845 -1.75888e-07 
371 1 0.0356542 0.071478 0.126265 55.845 -2.31677e-07 
372 1 0.0356678 0.107041 0.169261 55.845 -8.87341e-08 
373 1 0.071396 0.107142 0.126216 55.845 -1.71208e-07 
380 1 -0.00021865 -3.23967e-05 0.169335 55.845 -2.03073e-07 
381 1 0.0357412 -4.29952e-05 0.126332 55.845 -1.49557e-07 
382 1 0.0356244 0.0357673 0.169364 55.845 -7.53661e-08 
383 1 0.0714129 0.0356631 0.126224 55.845 -1.32568e-07 
384 1 0.0713754 0.07134 0.169424 55.845 -1.68591e-07 
385 1 0.107052 0.0714484 0.126263 55.845 -1.43245e-07 
386 1 0.107164 0.107111 0.169525 55.845 -1.80767e-07 
394 1 0.0714551 -6.57067e-05 0.169334 55.845 -1.03651e-07 
395 1 0.107095 7.84014e-05 0.126249 55.845 -1.80815e-07 
396 1 0.107143 0.0357822 0.169496 55.845 -2.62585e-07 
463 1 0 0.107143 0.0416667 55.845 1.90378e-07 
471 1 0 0.0357143 0.0416667 55.845 3.75306e-07 
472 1 -0.000120379 0.0713081 0.0829825 55.845 1.42661e-07 
473 1 0.0357143 0.0714286 0.0416667 55.845 2.37923e-07 
474 1 0.0356819 0.107096 0.0830885 55.845 2.47785e-07 
475 1 0.0714286 0.107143 0.0416667 55.845 1.52279e-07 
482 1 5.18554e-05 -2.64147e-06 0.0832539 55.845 5.77944e-09 
483 1 0.0357143 0 0.0416667 55.845 3.19828e-07 
484 1 0.0357001 0.0358167 0.0830018 55.845 1.09961e-07 
485 1 0.0714286 0.0357143 0.0416667 55.845 2.13115e-07 
486 1 0.0714282 0.0714698 0.0830867 55.845 1.45613e-07 
487 1 0.107143 0.0714286 0.0416667 55.845 1.93137e-07 
488 1 0.107093 0.107147 0.0830671 55.845 2.91869e-08 
496 1 0.0714163 7.16992e-05 0.0830745 55.845 1.78564e-07 
497 1 0.107143 0 0.0416667 55.845 1.8354e-07 
498 1 0.107152 0.0357273 0.0830966 55.845 2.81904e-08 
567 1 0 0.0714286 0 55.845 5.00545e-08 
568 1 0.0357143 0.107143 0 55.845 -5.37435e-08 
572 1 0 0 0 55.845 1.21027e-07 
573 1 0.0357143 0.0357143 0 55.845 4.71876e-08 
574 1 0.0714286 0.0714286 0 55.845 -3.30992e-08 
575 1 0.107143 0.107143 0 55.845 -4.26633e-08 
579 1 0.0714286 0 0 55.845 3.90438e-08 
580 1 0.107143 0.0357143 0 55.845 -6.37268e-08 
285 1 0.142994 0.107142 0.211887 55.845 3.14166e-07 
295 1 0.143 0.0357176 0.211933 55.845 1.34629e-07 
297 1 0.178547 0.0713848 0.211856 55.845 3.43064e-07 
299 1 0.214265 0.107073 0.211733 55.845 1.6962e-07 
307 1 0.178504 4.22977e-05 0.211821 55.845 1.54734e-07 
309 1 0.214172 0.0356783 0.211884 55.845 1.71676e-07 
311 1 0.249953 0.0713985 0.211681 55.845 1.91789e-07 
387 1 0.142796 0.107122 0.12602 55.845 -8.08428e-08 
397 1 0.142817 0.0356419 0.126118 55.845 -7.77781e-09 
398 1 0.142931 0.07147 0.169486 55.845 -1.84707e-07 
399 1 0.178565 0.0713793 0.126269 55.845 -3.94488e-08 
400 1 0.17848 0.10708 0.169422 55.845 3.86231e-08 
401 1 0.214337 0.107077 0.126386 55.845 -1.50462e-07 
408 1 0.142755 3.95423e-05 0.169427 55.845 -2.36218e-07 
409 1 0.178473 7.08229e-05 0.126056 55.845 -3.42044e-08 
410 1 0.178497 0.0355959 0.169411 55.845 -1.24001e-07 
411 1 0.214201 0.0355847 0.126069 55.845 5.19351e-08 
412 1 0.214183 0.0714031 0.169345 55.845 -7.31432e-08 
413 1 0.249939 0.0714998 0.126175 55.845 -8.43491e-08 
414 1 0.24991 0.107098 0.169396 55.845 -1.29224e-07 
424 1 0.214256 -3.79524e-05 0.169238 55.845 -7.91964e-08 
426 1 0.249894 0.0356718 0.169488 55.845 -1.09146e-07 
489 1 0.142857 0.107143 0.0416667 55.845 2.12049e-07 
499 1 0.142857 0.0357143 0.0416667 55.845 1.82919e-07 
500 1 0.142861 0.0713315 0.0831459 55.845 1.3382e-07 
501 1 0.178571 0.0714286 0.0416667 55.845 2.33641e-07 
502 1 0.178594 0.107083 0.0832564 55.845 1.27891e-07 
503 1 0.214286 0.107143 0.0416667 55.845 2.63845e-07 
510 1 0.142728 2.03762e-05 0.0830065 55.845 1.97588e-07 
511 1 0.178571 0 0.0416667 55.845 2.58603e-07 
512 1 0.178466 0.0357412 0.0830774 55.845 1.76496e-07 
513 1 0.214286 0.0357143 0.0416667 55.845 2.11614e-07 
514 1 0.214314 0.0714239 0.0830178 55.845 1.87241e-07 
515 1 0.25 0.0714286 0.0416667 55.845 2.96231e-07 
516 1 0.250019 0.107146 0.0830737 55.845 1.52234e-08 
526 1 0.214235 -0.000139387 0.0830891 55.845 2.86942e-07 
528 1 0.250014 0.035717 0.0830992 55.845 1.24789e-07 
581 1 0.142857 0.0714286 0 55.845 -8.95543e-08 
582 1 0.178571 0.107143 0 55.845 1.03895e-07 
586 1 0.142857 0 0 55.845 -1.26484e-07 
587 1 0.178571 0.0357143 0 55.845 -5.24728e-08 
588 1 0.214286 0.0714286 0 55.845 -1.09774e-08 
589 1 0.25 0.107143 0 55.845 1.23658e-07 
594 1 0.214286 0 0 55.845 -7.99503e-08 
595 1 0.25 0.0357143 0 55.845 -5.42728e-08 
313 1 0.285698 0.107122 0.211855 55.845 4.19257e-08 
323 1 0.250003 -1.46126e-05 0.211804 55.845 1.43508e-08 
325 1 0.285664 0.0355917 0.211753 55.845 -9.75341e-08 
327 1 0.321423 0.0714414 0.211778 55.845 1.57134e-07 
329 1 0.357116 0.107052 0.211945 55.845 7.53507e-08 
337 1 0.32152 -4.66656e-05 0.211575 55.845 -3.73912e-08 
339 1 0.357271 0.0356784 0.211525 55.845 1.38911e-07 
415 1 0.285744 0.107109 0.126088 55.845 -1.84577e-07 
425 1 0.249973 8.95705e-05 0.126015 55.845 -8.70812e-08 
427 1 0.285687 0.0357601 0.126145 55.845 -1.53839e-07 
428 1 0.285728 0.0713913 0.169393 55.845 -2.46739e-07 
429 1 0.321465 0.0714107 0.126259 55.845 -2.71373e-07 
430 1 0.321412 0.107106 0.169413 55.845 -1.65379e-07 
431 1 0.357134 0.107095 0.126352 55.845 -6.22611e-08 
439 1 0.321399 -7.25968e-05 0.126288 55.845 -3.09912e-07 
440 1 0.321501 0.0357626 0.169249 55.845 -1.28398e-07 
441 1 0.357328 0.035793 0.126149 55.845 -1.42681e-07 
442 1 0.357248 0.0713797 0.169393 55.845 -2.22741e-07 
517 1 0.285714 0.107143 0.0416667 55.845 3.23346e-07 
527 1 0.25 0 0.0416667 55.845 2.42289e-07 
529 1 0.285714 0.0357143 0.0416667 55.845 1.58637e-07 
530 1 0.285702 0.0713761 0.0829236 55.845 9.9544e-08 
531 1 0.321429 0.0714286 0.0416667 55.845 2.69179e-07 
532 1 0.321477 0.107175 0.0831856 55.845 1.65316e-07 
533 1 0.357143 0.107143 0.0416667 55.845 2.62813e-07 
603 1 0.357143 0.0714286 0 55.845 1.09097e-07 
541 1 0.321429 0 0.0416667 55.845 1.92008e-07 
542 1 0.321333 0.0357912 0.0831924 55.845 1.8273e-07 
543 1 0.357143 0.0357143 0.0416667 55.845 1.79676e-07 
544 1 0.357226 0.0714426 0.0831296 55.845 2.09436e-07 
602 1 0.321429 0.0357143 0 55.845 2.49266e-08 
596 1 0.285714 0.0714286 0 55.845 1.28826e-08 
597 1 0.321429 0.107143 0 55.845 7.77963e-08 
612 1 0.464286 0.0357143 0 55.845 8.31392e-08 
611 1 0.428571 0 0 55.845 2.03486e-07 
610 1 0.464286 0.107143 0 55.845 -1.32689e-07 
609 1 0.428571 0.0714286 0 55.845 -1.74133e-09 
608 1 0.392857 0.0357143 0 55.845 1.63143e-07 
341 1 0.393039 0.071408 0.211764 55.845 2.30855e-07 
343 1 0.428562 0.107075 0.211704 55.845 -2.10113e-07 
348 1 0.39298 5.73996e-05 0.211788 55.845 4.15408e-07 
350 1 0.428709 0.0356927 0.211787 55.845 -6.05314e-08 
352 1 0.464263 0.0714364 0.211889 55.845 -4.51816e-08 
355 1 0.464366 1.13994e-05 0.211869 55.845 6.22033e-08 
443 1 0.392892 0.0714295 0.12617 55.845 -1.80791e-07 
444 1 0.392902 0.107161 0.169324 55.845 -6.72469e-08 
445 1 0.42856 0.107112 0.126234 55.845 -1.16591e-07 
604 1 0.392857 0.107143 0 55.845 -3.15005e-08 
450 1 0.39285 -5.78355e-05 0.126187 55.845 -1.69033e-07 
451 1 0.393071 0.035632 0.169406 55.845 -1.67082e-07 
452 1 0.428593 0.0356639 0.126064 55.845 -2.09356e-07 
453 1 0.428599 0.0713739 0.169242 55.845 -1.93307e-08 
454 1 0.464324 0.0714207 0.126245 55.845 -3.27148e-07 
455 1 0.464281 0.107162 0.169446 55.845 9.74773e-09 
456 1 0.428694 -6.48782e-05 0.169167 55.845 -1.8179e-07 
457 1 0.464411 1.2211e-05 0.125969 55.845 -4.57797e-07 
458 1 0.464355 0.0357501 0.169307 55.845 -3.76705e-08 
545 1 0.392857 0.0714286 0.0416667 55.845 2.61068e-07 
546 1 0.392846 0.107082 0.0830465 55.845 1.938e-07 
547 1 0.428571 0.107143 0.0416667 55.845 1.54714e-07 
552 1 0.392857 0 0.0416667 55.845 3.41973e-07 
553 1 0.39288 0.0356029 0.0830764 55.845 1.5774e-07 
554 1 0.428571 0.0357143 0.0416667 55.845 1.85026e-07 
555 1 0.428692 0.0714003 0.0829657 55.845 1.47158e-07 
556 1 0.464286 0.0714286 0.0416667 55.845 2.26777e-07 
557 1 0.464327 0.107093 0.08294 55.845 1.92724e-07 
558 1 0.428645 2.40751e-05 0.0829549 55.845 5.49544e-08 
559 1 0.464286 0 0.0416667 55.845 2.49771e-07 
560 1 0.464355 0.0356157 0.0831098 55.845 1.5748e-07 
255 1 8.28395e-05 0.178628 0.211667 55.845 -3.34327e-07 
257 1 0.0358614 0.214328 0.211803 55.845 -1.61134e-07 
261 1 0.0356707 0.142811 0.211712 55.845 -1.53424e-07 
263 1 0.0713724 0.178455 0.211615 55.845 7.28903e-08 
265 1 0.107154 0.214095 0.211793 55.845 2.58107e-07 
273 1 0.107249 0.142802 0.211858 55.845 3.0488e-07 
357 1 0.000117541 0.178614 0.126052 55.845 -3.9968e-07 
358 1 0.000109884 0.214281 0.169277 55.845 8.33976e-08 
359 1 0.0358628 0.214348 0.126084 55.845 -2.99907e-07 
360 1 0.0358478 0.25002 0.169491 55.845 -1.14096e-07 
362 1 -2.65292e-05 0.142894 0.169151 55.845 -6.08309e-08 
363 1 0.0356597 0.142816 0.126156 55.845 -3.23459e-07 
364 1 0.0356827 0.178633 0.169376 55.845 1.27298e-07 
365 1 0.071394 0.178624 0.126197 55.845 -1.66789e-07 
366 1 0.0714843 0.214295 0.169475 55.845 -1.93995e-07 
367 1 0.107144 0.214291 0.126156 55.845 -5.4169e-08 
368 1 0.107236 0.250011 0.16934 55.845 -2.27513e-07 
374 1 0.0714812 0.142798 0.169333 55.845 -1.61235e-07 
375 1 0.10714 0.142842 0.126209 55.845 -8.00251e-08 
376 1 0.107195 0.178455 0.169427 55.845 -1.2853e-07 
459 1 0 0.178571 0.0416667 55.845 4.4773e-08 
460 1 -1.00775e-05 0.214278 0.0830047 55.845 4.14953e-07 
461 1 0.0357143 0.214286 0.0416667 55.845 9.96564e-08 
462 1 0.0357304 0.249987 0.0830523 55.845 2.04443e-07 
464 1 2.44702e-05 0.142897 0.0828694 55.845 3.89564e-07 
465 1 0.0357143 0.142857 0.0416667 55.845 9.41775e-08 
466 1 0.0357346 0.178579 0.0829326 55.845 3.46571e-07 
467 1 0.0714286 0.178571 0.0416667 55.845 1.59181e-07 
468 1 0.0715184 0.214347 0.0829285 55.845 2.2215e-07 
469 1 0.107143 0.214286 0.0416667 55.845 3.09303e-07 
470 1 0.107226 0.249914 0.08313 55.845 1.18976e-07 
476 1 0.0713738 0.142895 0.0830181 55.845 1.76596e-07 
477 1 0.107143 0.142857 0.0416667 55.845 2.28695e-07 
478 1 0.107095 0.178499 0.0831601 55.845 4.8451e-08 
561 1 0 0.214286 0 55.845 -7.09753e-08 
562 1 0.0357143 0.25 0 55.845 -6.08988e-08 
563 1 0 0.142857 0 55.845 -7.10975e-08 
564 1 0.0357143 0.178571 0 55.845 -3.1665e-08 
565 1 0.0714286 0.214286 0 55.845 2.84984e-08 
566 1 0.107143 0.25 0 55.845 2.03594e-07 
569 1 0.0714286 0.142857 0 55.845 -1.40707e-08 
570 1 0.107143 0.178571 0 55.845 9.04709e-08 
275 1 0.142781 0.178485 0.211626 55.845 2.37888e-07 
277 1 0.178607 0.214397 0.211492 55.845 -1.22949e-08 
287 1 0.17849 0.142803 0.211739 55.845 2.13036e-07 
289 1 0.214385 0.178599 0.211538 55.845 7.7924e-09 
291 1 0.250043 0.214345 0.211616 55.845 1.29183e-07 
301 1 0.250014 0.142801 0.211609 55.845 1.22517e-07 
377 1 0.142835 0.178539 0.126089 55.845 -2.01765e-07 
378 1 0.142829 0.214216 0.169333 55.845 -2.27878e-07 
379 1 0.178502 0.214298 0.126197 55.845 -4.80118e-07 
388 1 0.142831 0.142814 0.169293 55.845 -1.01336e-07 
389 1 0.178674 0.142888 0.126164 55.845 -2.89488e-07 
390 1 0.178673 0.178488 0.169275 55.845 2.23253e-08 
391 1 0.21432 0.178649 0.126196 55.845 -4.64876e-07 
392 1 0.214322 0.214303 0.169151 55.845 -1.81125e-07 
393 1 0.250089 0.214342 0.126161 55.845 -4.96278e-07 
402 1 0.214267 0.142891 0.169377 55.845 -6.16302e-08 
403 1 0.24994 0.142759 0.126188 55.845 -2.54443e-07 
404 1 0.250057 0.178656 0.169447 55.845 -1.61425e-07 
479 1 0.142857 0.178571 0.0416667 55.845 2.65583e-07 
480 1 0.142841 0.214259 0.0830003 55.845 1.25352e-07 
481 1 0.178571 0.214286 0.0416667 55.845 2.21472e-07 
490 1 0.142974 0.142853 0.0830354 55.845 6.17238e-08 
491 1 0.178571 0.142857 0.0416667 55.845 2.50061e-07 
492 1 0.178689 0.178689 0.0830541 55.845 6.75442e-08 
493 1 0.214286 0.178571 0.0416667 55.845 2.10555e-07 
494 1 0.214283 0.21432 0.0829204 55.845 1.16607e-07 
495 1 0.25 0.214286 0.0416667 55.845 2.07152e-07 
504 1 0.214352 0.142892 0.082972 55.845 1.02451e-07 
505 1 0.25 0.142857 0.0416667 55.845 3.07374e-07 
506 1 0.249952 0.178563 0.0829616 55.845 -1.92056e-09 
571 1 0.142857 0.214286 0 55.845 2.23106e-07 
576 1 0.142857 0.142857 0 55.845 8.75044e-08 
577 1 0.178571 0.178571 0 55.845 1.78916e-07 
578 1 0.214286 0.214286 0 55.845 2.3814e-07 
583 1 0.214286 0.142857 0 55.845 1.8495e-07 
584 1 0.25 0.178571 0 55.845 2.10509e-07 
303 1 0.285711 0.178474 0.21177 55.845 1.60932e-07 
305 1 0.321383 0.214348 0.211794 55.845 2.09386e-07 
315 1 0.321321 0.142978 0.21193 55.845 1.5475e-07 
317 1 0.35708 0.178549 0.211789 55.845 7.40968e-08 
405 1 0.285692 0.178498 0.126258 55.845 -2.55085e-07 
406 1 0.285766 0.214352 0.169463 55.845 -2.30183e-07 
407 1 0.321412 0.214343 0.126293 55.845 -2.03847e-07 
416 1 0.285765 0.142789 0.169452 55.845 -2.5665e-07 
417 1 0.321419 0.142907 0.126191 55.845 -1.24592e-07 
418 1 0.321398 0.17858 0.169496 55.845 -1.8127e-07 
419 1 0.357112 0.178577 0.126354 55.845 -2.31381e-08 
420 1 0.357057 0.214257 0.169438 55.845 -2.00923e-07 
432 1 0.357107 0.142744 0.169371 55.845 -1.96924e-07 
507 1 0.285714 0.178571 0.0416667 55.845 3.00815e-07 
508 1 0.28569 0.214304 0.0831237 55.845 8.98748e-08 
509 1 0.321429 0.214286 0.0416667 55.845 3.31962e-07 
518 1 0.285643 0.142836 0.0831662 55.845 7.82316e-08 
519 1 0.321429 0.142857 0.0416667 55.845 3.40646e-07 
520 1 0.321406 0.178517 0.0829551 55.845 8.71541e-08 
521 1 0.357143 0.178571 0.0416667 55.845 2.70818e-07 
522 1 0.357135 0.214245 0.083212 55.845 8.70114e-08 
534 1 0.35707 0.142837 0.0831236 55.845 1.67432e-07 
585 1 0.285714 0.214286 0 55.845 1.61479e-07 
590 1 0.285714 0.142857 0 55.845 1.57616e-07 
591 1 0.321429 0.178571 0 55.845 1.08222e-07 
592 1 0.357143 0.214286 0 55.845 4.7644e-09 
598 1 0.357143 0.142857 0 55.845 6.19196e-08 
319 1 0.392861 0.214296 0.211775 55.845 7.49973e-09 
321 1 0.428592 0.250053 0.21181 55.845 -1.79445e-07 
331 1 0.392799 0.142821 0.211778 55.845 5.70602e-08 
333 1 0.428575 0.178571 0.211839 55.845 -1.72635e-07 
335 1 0.464277 0.214233 0.211743 55.845 -6.60284e-08 
345 1 0.464284 0.142872 0.21185 55.845 -5.44671e-08 
606 1 0.464286 0.178571 0 55.845 -1.49351e-07 
421 1 0.392936 0.214356 0.126192 55.845 -1.10408e-07 
422 1 0.392782 0.249937 0.169471 55.845 -2.90904e-07 
423 1 0.428518 0.249918 0.12626 55.845 -1.35395e-07 
433 1 0.392809 0.142848 0.126192 55.845 -5.73168e-08 
434 1 0.392832 0.178705 0.169411 55.845 -1.31285e-07 
435 1 0.428651 0.178568 0.126313 55.845 -1.02849e-07 
436 1 0.428597 0.214244 0.169325 55.845 -1.30221e-07 
437 1 0.464252 0.214482 0.126092 55.845 -1.22679e-07 
605 1 0.428571 0.142857 0 55.845 -1.16335e-07 
446 1 0.428562 0.142836 0.169277 55.845 -5.31855e-08 
447 1 0.464258 0.142931 0.12611 55.845 -2.05191e-07 
448 1 0.464298 0.178582 0.169563 55.845 -3.39844e-08 
523 1 0.392857 0.214286 0.0416667 55.845 2.64879e-07 
524 1 0.392885 0.250034 0.0830609 55.845 7.33718e-08 
525 1 0.428571 0.25 0.0416667 55.845 2.69524e-07 
535 1 0.392857 0.142857 0.0416667 55.845 2.35831e-07 
536 1 0.392873 0.178543 0.0830832 55.845 2.33973e-07 
537 1 0.428571 0.178571 0.0416667 55.845 1.64267e-07 
538 1 0.428551 0.214291 0.082905 55.845 1.74639e-07 
539 1 0.464286 0.214286 0.0416667 55.845 3.16433e-07 
548 1 0.428512 0.142833 0.0830077 55.845 2.19885e-07 
549 1 0.464286 0.142857 0.0416667 55.845 1.42306e-07 
550 1 0.464224 0.178657 0.0831209 55.845 3.84257e-07 
593 1 0.392857 0.25 0 55.845 -7.68176e-08 
599 1 0.392857 0.178571 0 55.845 -1.17636e-07 
600 1 0.428571 0.214286 0 55.845 -1.07741e-07 
3 1 -1.24111e-05 0.107138 0.463511 55.845 -1.75598e-07 
7 1 -2.97525e-05 0.0357367 0.463674 55.845 -3.44572e-07 
8 1 0.0357463 0.0714596 0.46353 55.845 -3.08701e-07 
9 1 0.0715184 0.107113 0.463623 55.845 -1.06735e-07 
13 1 0.0357433 0.000122229 0.463558 55.845 -3.49929e-07 
14 1 0.071523 0.0357124 0.463579 55.845 -4.43873e-07 
15 1 0.107146 0.071426 0.463603 55.845 -3.44337e-07 
20 1 0.107188 3.33553e-05 0.463621 55.845 -3.63563e-07 
55 1 4.56573e-05 0.107118 0.381333 55.845 2.67637e-07 
63 1 3.77297e-05 0.0356936 0.381331 55.845 -1.40736e-07 
64 1 0.000134897 0.0714131 0.422609 55.845 -1.83569e-07 
65 1 0.0357616 0.0714483 0.381188 55.845 -2.67642e-08 
66 1 0.0357682 0.10717 0.42265 55.845 -3.18285e-07 
67 1 0.0714692 0.107125 0.381232 55.845 2.10952e-07 
74 1 3.20561e-05 4.05626e-05 0.422591 55.845 -1.42337e-07 
75 1 0.0357653 4.39494e-05 0.381286 55.845 -1.7953e-07 
76 1 0.0356977 0.03574 0.422611 55.845 1.22256e-08 
77 1 0.0715363 0.0357576 0.381495 55.845 -1.88357e-07 
78 1 0.071421 0.0715483 0.422723 55.845 -2.19589e-07 
79 1 0.1072 0.0714762 0.381312 55.845 -7.33619e-08 
80 1 0.1072 0.107186 0.422593 55.845 -5.24572e-07 
88 1 0.0714776 5.13348e-05 0.422664 55.845 1.15998e-08 
89 1 0.107065 -8.2519e-05 0.381189 55.845 1.16108e-08 
90 1 0.107157 0.0357672 0.42283 55.845 -1.5095e-07 
157 1 -6.08355e-05 0.107097 0.296243 55.845 -2.52612e-08 
165 1 -2.05446e-05 0.0356996 0.296271 55.845 -1.09522e-07 
166 1 0.000111332 0.071455 0.339347 55.845 1.79695e-07 
167 1 0.0357584 0.0714852 0.29626 55.845 -1.62856e-07 
168 1 0.0357611 0.107134 0.339439 55.845 7.8994e-08 
169 1 0.0713373 0.107128 0.296189 55.845 2.70394e-09 
176 1 0.000126504 0.000116278 0.339454 55.845 8.24728e-08 
177 1 0.0357423 -3.40811e-06 0.296234 55.845 -1.38633e-07 
178 1 0.0357855 0.0356496 0.339394 55.845 3.10057e-07 
179 1 0.0714994 0.0357619 0.296298 55.845 -2.27323e-07 
180 1 0.0714183 0.0714766 0.339471 55.845 1.35675e-08 
181 1 0.107107 0.0714118 0.296374 55.845 -1.32136e-07 
182 1 0.107162 0.10717 0.339403 55.845 -1.67563e-07 
190 1 0.0714404 9.69592e-05 0.339416 55.845 2.53994e-07 
191 1 0.107188 -1.06889e-05 0.296345 55.845 -2.03119e-07 
192 1 0.107038 0.0356105 0.33944 55.845 1.33479e-07 
268 1 -5.3413e-05 0.0714797 0.253697 55.845 6.14392e-08 
270 1 0.0356433 0.107078 0.253531 55.845 -2.20159e-08 
278 1 5.90062e-06 -0.000140773 0.253751 55.845 1.42508e-07 
280 1 0.0358453 0.0357287 0.253765 55.845 1.8963e-07 
282 1 0.0714522 0.0713883 0.253694 55.845 3.7116e-08 
284 1 0.107063 0.107134 0.25375 55.845 -1.03364e-07 
292 1 0.0714982 -1.67208e-05 0.253862 55.845 1.87884e-07 
294 1 0.107231 0.0357596 0.253794 55.845 -3.34948e-08 
16 1 0.142826 0.107097 0.463492 55.845 -2.29094e-07 
21 1 0.142851 0.0357755 0.463552 55.845 -4.04956e-07 
22 1 0.178516 0.0713702 0.463634 55.845 -4.40391e-07 
23 1 0.214255 0.107214 0.46351 55.845 -3.25693e-07 
27 1 0.178542 7.39544e-05 0.463538 55.845 -2.56955e-07 
28 1 0.214295 0.0357507 0.463528 55.845 -2.29326e-07 
29 1 0.249981 0.0714025 0.463518 55.845 -3.43951e-07 
81 1 0.142871 0.107101 0.381265 55.845 -1.03707e-07 
91 1 0.142797 0.0356992 0.381397 55.845 -6.0188e-08 
92 1 0.142845 0.0715406 0.422687 55.845 -1.31416e-07 
93 1 0.178587 0.0713865 0.381498 55.845 -9.27978e-08 
94 1 0.178493 0.107169 0.422716 55.845 -3.35277e-08 
95 1 0.214314 0.10721 0.381343 55.845 -2.84875e-07 
102 1 0.142827 5.73866e-05 0.422604 55.845 -2.18162e-07 
103 1 0.17859 -2.07949e-05 0.381267 55.845 3.17853e-07 
104 1 0.178543 0.0358089 0.422575 55.845 -2.31975e-07 
105 1 0.214302 0.0357656 0.381375 55.845 1.09038e-07 
106 1 0.214295 0.0715175 0.422753 55.845 -3.11443e-08 
107 1 0.249964 0.0713711 0.381416 55.845 -1.1522e-08 
108 1 0.250054 0.107195 0.422493 55.845 -1.73544e-07 
118 1 0.214249 2.60157e-05 0.422511 55.845 -4.70855e-07 
120 1 0.250001 0.0356779 0.422879 55.845 -4.27097e-07 
183 1 0.14279 0.107175 0.296157 55.845 1.38687e-10 
193 1 0.142842 0.0356333 0.296454 55.845 -3.16636e-08 
194 1 0.142874 0.0713706 0.339525 55.845 -4.87934e-08 
195 1 0.178608 0.0714441 0.29636 55.845 -6.01353e-08 
196 1 0.178629 0.10718 0.339593 55.845 2.58308e-07 
197 1 0.214337 0.107169 0.296428 55.845 -1.554e-07 
204 1 0.142852 7.69091e-05 0.339453 55.845 9.26351e-08 
205 1 0.178589 5.24694e-05 0.296299 55.845 2.16904e-08 
206 1 0.17858 0.0356843 0.339636 55.845 1.09527e-07 
207 1 0.214235 0.0357615 0.296174 55.845 8.91978e-08 
208 1 0.214334 0.0713802 0.33949 55.845 1.28332e-07 
209 1 0.249936 0.0714971 0.296322 55.845 -1.06899e-07 
210 1 0.250096 0.107099 0.339429 55.845 1.7851e-07 
220 1 0.21436 -6.83835e-05 0.33936 55.845 1.53801e-08 
222 1 0.250069 0.0356959 0.339511 55.845 2.84606e-08 
296 1 0.142863 0.0714083 0.253809 55.845 -8.85234e-09 
298 1 0.178668 0.107181 0.253998 55.845 2.84155e-07 
306 1 0.142756 4.49007e-06 0.253698 55.845 -1.04152e-07 
308 1 0.178501 0.0356758 0.253955 55.845 -4.07538e-08 
310 1 0.214288 0.0714322 0.253702 55.845 2.01065e-07 
312 1 0.249841 0.107159 0.253758 55.845 9.66424e-08 
322 1 0.214269 -4.90879e-05 0.25365 55.845 -1.39291e-08 
324 1 0.249952 0.0357341 0.253703 55.845 -7.66062e-08 
30 1 0.285751 0.107196 0.463666 55.845 -2.76316e-07 
35 1 0.249907 3.30215e-05 0.46357 55.845 -2.09823e-07 
36 1 0.285714 0.0356954 0.463584 55.845 -2.05291e-07 
37 1 0.321496 0.0713439 0.463477 55.845 -4.25581e-07 
38 1 0.357212 0.107033 0.463536 55.845 -3.93943e-07 
42 1 0.321472 4.04636e-05 0.463583 55.845 -3.06162e-07 
43 1 0.357086 0.0356766 0.463453 55.845 -3.09991e-07 
109 1 0.285771 0.107137 0.3814 55.845 -1.11877e-07 
119 1 0.250066 6.09733e-05 0.381309 55.845 1.56028e-07 
121 1 0.285736 0.0356353 0.381247 55.845 -2.84573e-09 
122 1 0.285768 0.0713019 0.422828 55.845 -2.60312e-07 
123 1 0.321457 0.0713497 0.38123 55.845 1.26731e-07 
124 1 0.321443 0.107149 0.422704 55.845 -2.36091e-07 
125 1 0.357066 0.107096 0.38122 55.845 4.0928e-08 
133 1 0.321376 1.78146e-05 0.381476 55.845 7.14103e-08 
134 1 0.321413 0.0358332 0.422644 55.845 -3.33448e-07 
135 1 0.35717 0.0356483 0.381236 55.845 1.37036e-08 
136 1 0.357151 0.0714227 0.422787 55.845 1.01898e-08 
211 1 0.285655 0.10699 0.296378 55.845 -6.80814e-08 
221 1 0.250077 9.08321e-05 0.296078 55.845 -1.8661e-07 
223 1 0.285718 0.0356562 0.296246 55.845 -6.27635e-08 
224 1 0.285696 0.0713839 0.339341 55.845 -3.16197e-08 
225 1 0.32147 0.0713672 0.296226 55.845 -9.48883e-08 
226 1 0.321341 0.107105 0.339366 55.845 1.03795e-07 
227 1 0.357193 0.107102 0.296261 55.845 1.36718e-07 
235 1 0.321469 9.99489e-06 0.296178 55.845 -2.43583e-07 
236 1 0.321439 0.0356887 0.339319 55.845 -1.00975e-08 
237 1 0.357096 0.0357515 0.296354 55.845 2.28123e-07 
238 1 0.357194 0.0713742 0.339424 55.845 4.10797e-08 
326 1 0.28562 0.0713499 0.253622 55.845 -1.55588e-08 
328 1 0.321459 0.107088 0.253816 55.845 2.07025e-08 
338 1 0.321486 0.0356539 0.253415 55.845 -4.91868e-08 
340 1 0.35725 0.0713029 0.253669 55.845 -1.0128e-08 
44 1 0.392845 0.0713615 0.463465 55.845 -4.74005e-07 
45 1 0.428655 0.107123 0.463439 55.845 -2.97319e-07 
47 1 0.392915 -6.88481e-05 0.463551 55.845 -2.50237e-07 
48 1 0.428569 0.0357262 0.463445 55.845 -3.48135e-07 
49 1 0.464253 0.0715132 0.463317 55.845 -2.8532e-07 
50 1 0.464252 6.91712e-05 0.463506 55.845 -3.44991e-07 
137 1 0.392787 0.0715037 0.381227 55.845 7.06057e-08 
138 1 0.392778 0.107114 0.422745 55.845 -1.04646e-07 
139 1 0.428593 0.107057 0.381354 55.845 -8.23763e-08 
144 1 0.392902 -0.000126534 0.381564 55.845 1.20326e-07 
145 1 0.392848 0.0357779 0.422678 55.845 -1.31975e-07 
146 1 0.428469 0.0357764 0.381448 55.845 -1.85638e-07 
147 1 0.428467 0.0713264 0.42265 55.845 -1.03779e-07 
148 1 0.464368 0.0714443 0.381223 55.845 2.67551e-09 
149 1 0.464359 0.107107 0.422527 55.845 -5.44651e-07 
150 1 0.428587 -4.15903e-05 0.422801 55.845 -1.7104e-07 
151 1 0.464307 1.4312e-05 0.381355 55.845 -9.79179e-08 
152 1 0.464172 0.0357954 0.42259 55.845 -2.44667e-07 
239 1 0.39286 0.0714483 0.296333 55.845 -6.45895e-08 
240 1 0.392841 0.107135 0.339532 55.845 3.4125e-07 
241 1 0.428536 0.107127 0.296443 55.845 -1.43175e-07 
246 1 0.392926 2.7477e-05 0.296675 55.845 8.2366e-08 
247 1 0.392765 0.0356745 0.339651 55.845 1.96815e-08 
248 1 0.428518 0.0356952 0.296445 55.845 -3.50057e-08 
249 1 0.428525 0.0713924 0.339516 55.845 1.71724e-07 
250 1 0.464315 0.0715525 0.296311 55.845 -4.10148e-07 
251 1 0.464264 0.107162 0.339579 55.845 1.46171e-07 
252 1 0.428622 5.51069e-05 0.339732 55.845 -1.9291e-08 
253 1 0.464259 -2.73312e-05 0.296473 55.845 -3.20675e-07 
254 1 0.464272 0.0357099 0.339588 55.845 1.53693e-07 
342 1 0.392876 0.107175 0.253725 55.845 1.00967e-07 
349 1 0.392911 0.0356986 0.253685 55.845 -3.76545e-08 
351 1 0.428599 0.0714139 0.253951 55.845 2.26016e-07 
353 1 0.464193 0.107213 0.253453 55.845 1.5561e-07 
354 1 0.428606 -5.49365e-05 0.253898 55.845 1.43192e-07 
356 1 0.464287 0.0357213 0.253902 55.845 3.14692e-07 
1 1 -8.23842e-05 0.178712 0.463583 55.845 -3.89797e-07 
2 1 0.0357573 0.214363 0.463516 55.845 -4.75514e-07 
4 1 0.0357278 0.142833 0.463653 55.845 -1.61746e-07 
5 1 0.0715078 0.178638 0.46343 55.845 -1.06708e-07 
6 1 0.107102 0.214434 0.463331 55.845 -9.68954e-08 
10 1 0.107188 0.142853 0.463468 55.845 -2.11219e-09 
51 1 5.49511e-05 0.178627 0.381318 55.845 8.87991e-08 
52 1 -2.94387e-06 0.214298 0.422644 55.845 -7.8684e-08 
53 1 0.0357006 0.214173 0.381262 55.845 -3.16157e-08 
54 1 0.0357324 0.24996 0.422564 55.845 -3.39559e-07 
56 1 8.46704e-05 0.142895 0.422701 55.845 -2.80801e-07 
57 1 0.0357728 0.142782 0.381288 55.845 2.55744e-07 
58 1 0.0357037 0.178529 0.422722 55.845 -3.44014e-07 
59 1 0.0713596 0.178553 0.381281 55.845 2.4374e-07 
60 1 0.0714748 0.21422 0.422575 55.845 -3.63516e-07 
61 1 0.107222 0.214303 0.381219 55.845 1.23408e-07 
62 1 0.107119 0.250033 0.422613 55.845 -4.92226e-07 
68 1 0.0714491 0.142893 0.422778 55.845 -5.02293e-07 
69 1 0.10699 0.14291 0.381255 55.845 1.50262e-07 
70 1 0.107179 0.178569 0.422725 55.845 -6.57423e-07 
153 1 4.37552e-05 0.178572 0.296286 55.845 -2.27347e-07 
154 1 -5.62927e-05 0.214345 0.339583 55.845 3.64802e-07 
155 1 0.0357389 0.214208 0.296418 55.845 -2.04333e-07 
156 1 0.0356127 0.250042 0.339536 55.845 2.74435e-07 
158 1 -7.08005e-05 0.142771 0.339457 55.845 9.91922e-08 
159 1 0.0356957 0.142849 0.296148 55.845 -1.47091e-08 
160 1 0.035701 0.178505 0.339526 55.845 1.54386e-07 
161 1 0.0713688 0.178496 0.296374 55.845 7.96257e-08 
162 1 0.0715275 0.214274 0.33932 55.845 -1.01722e-07 
163 1 0.107281 0.214241 0.296204 55.845 6.77411e-08 
164 1 0.107245 0.249948 0.339681 55.845 2.38615e-08 
170 1 0.0714321 0.142757 0.339455 55.845 -2.79666e-07 
171 1 0.107111 0.142788 0.296428 55.845 1.12984e-07 
172 1 0.107188 0.178555 0.339395 55.845 -1.61588e-07 
256 1 3.17698e-05 0.214226 0.253739 55.845 3.21333e-07 
258 1 0.0358274 0.250016 0.253952 55.845 1.18436e-07 
260 1 -1.70613e-05 0.142894 0.253784 55.845 6.7316e-08 
262 1 0.0357828 0.17849 0.25369 55.845 1.05273e-07 
264 1 0.0714393 0.214267 0.253651 55.845 1.45212e-07 
266 1 0.107221 0.249965 0.253657 55.845 -3.73324e-08 
272 1 0.071468 0.142699 0.253601 55.845 -2.99676e-08 
274 1 0.10701 0.178386 0.253776 55.845 -7.43242e-08 
11 1 0.142834 0.178542 0.463429 55.845 -3.35104e-08 
12 1 0.178601 0.214241 0.463575 55.845 -2.4007e-07 
17 1 0.178524 0.142963 0.463522 55.845 -2.97018e-07 
18 1 0.21432 0.178592 0.463543 55.845 -1.73315e-07 
19 1 0.249922 0.214339 0.463805 55.845 -1.52307e-07 
24 1 0.249968 0.142927 0.463477 55.845 -3.08399e-07 
71 1 0.142986 0.178491 0.381322 55.845 -5.07098e-08 
72 1 0.14282 0.214253 0.422789 55.845 -3.35175e-07 
73 1 0.178613 0.214246 0.381288 55.845 -7.35368e-08 
82 1 0.142869 0.142739 0.42265 55.845 -3.09777e-07 
83 1 0.178573 0.142821 0.381457 55.845 -2.20317e-07 
84 1 0.178616 0.178599 0.422677 55.845 -2.09386e-07 
85 1 0.214305 0.178503 0.381302 55.845 -2.56763e-07 
86 1 0.21427 0.21426 0.422715 55.845 -1.18475e-07 
87 1 0.250099 0.214283 0.381256 55.845 4.73817e-08 
96 1 0.214322 0.142899 0.422791 55.845 9.46337e-08 
97 1 0.249979 0.142859 0.381268 55.845 -1.61687e-07 
98 1 0.250033 0.178585 0.422679 55.845 -4.27418e-07 
173 1 0.142869 0.178552 0.296156 55.845 2.22153e-08 
174 1 0.142898 0.214187 0.339432 55.845 -8.8672e-08 
175 1 0.178588 0.214235 0.296089 55.845 -1.66039e-07 
184 1 0.14297 0.142901 0.339435 55.845 -1.32065e-07 
185 1 0.178664 0.142869 0.296448 55.845 -1.84338e-07 
186 1 0.178655 0.178624 0.339189 55.845 1.52504e-07 
187 1 0.214333 0.178556 0.296187 55.845 -2.19275e-07 
188 1 0.214343 0.214227 0.339571 55.845 -7.19162e-08 
189 1 0.249956 0.214247 0.296382 55.845 -1.68642e-08 
198 1 0.214265 0.14277 0.339638 55.845 1.41923e-07 
199 1 0.24994 0.142804 0.296063 55.845 -2.44114e-07 
200 1 0.249894 0.178544 0.339366 55.845 1.4252e-08 
276 1 0.142934 0.21436 0.253597 55.845 1.87069e-07 
286 1 0.142832 0.142882 0.253868 55.845 1.98968e-07 
288 1 0.17865 0.178597 0.253604 55.845 2.8566e-07 
290 1 0.214336 0.214361 0.253602 55.845 3.36405e-07 
300 1 0.214238 0.142834 0.253536 55.845 4.41953e-07 
302 1 0.249964 0.178558 0.253546 55.845 4.18067e-08 
25 1 0.285814 0.178543 0.463555 55.845 -5.28176e-08 
26 1 0.321516 0.214118 0.463603 55.845 -2.49807e-07 
31 1 0.321516 0.142826 0.463328 55.845 -3.02012e-07 
32 1 0.357195 0.178502 0.463374 55.845 -2.40235e-07 
99 1 0.285695 0.178539 0.381248 55.845 -5.85229e-08 
100 1 0.285729 0.214284 0.42283 55.845 -4.47048e-07 
101 1 0.321469 0.214276 0.381472 55.845 1.88932e-07 
110 1 0.285683 0.14277 0.422628 55.845 -2.67088e-07 
111 1 0.321451 0.142863 0.381199 55.845 1.59284e-07 
112 1 0.321484 0.178485 0.422643 55.845 -5.5203e-07 
113 1 0.357167 0.178543 0.381366 55.845 5.10893e-08 
114 1 0.357105 0.214289 0.422723 55.845 -3.49519e-07 
126 1 0.357114 0.14275 0.42262 55.845 -8.45283e-08 
201 1 0.285658 0.178565 0.29613 55.845 9.58532e-08 
202 1 0.285803 0.214242 0.339467 55.845 -2.55101e-07 
203 1 0.321406 0.214325 0.296527 55.845 1.35473e-07 
212 1 0.285597 0.142859 0.339306 55.845 -9.20412e-08 
213 1 0.321408 0.14276 0.296164 55.845 -2.88901e-08 
214 1 0.321383 0.178458 0.339159 55.845 -4.64924e-08 