ITEM: TIMESTEP
8800
ITEM: NUMBER OF ATOMS
5880
ITEM: BOX BOUNDS pp pp ff
-27.9826 27.9826
-27.9827 27.9827
0 34.092
ITEM: ATOMS id type xs ys zs mass q 
259 1 3.13207e-05 0.10717 0.20959 55.845 -6.6989e-08 
267 1 2.69194e-05 0.0357966 0.209845 55.845 -2.03149e-07 
269 1 0.03577 0.0714082 0.209778 55.845 -4.13071e-07 
271 1 0.0713254 0.107133 0.209563 55.845 -6.66083e-07 
279 1 0.0355743 0.000111712 0.209637 55.845 -2.85178e-07 
281 1 0.0713948 0.0357592 0.209719 55.845 -3.93562e-07 
283 1 0.107026 0.0712878 0.209768 55.845 -7.06674e-07 
293 1 0.10694 -4.29877e-05 0.209816 55.845 -2.5286e-07 
361 1 -0.000129771 0.10702 0.12565 55.845 1.49268e-07 
369 1 -8.58006e-05 0.0357331 0.125669 55.845 -5.60749e-07 
370 1 0.000105809 0.0712686 0.167446 55.845 3.39896e-07 
371 1 0.0357418 0.0713995 0.125459 55.845 -4.0857e-07 
372 1 0.0357647 0.107165 0.167306 55.845 7.13344e-07 
373 1 0.0714495 0.107077 0.125508 55.845 -6.14986e-07 
380 1 -0.000138277 6.01705e-05 0.167354 55.845 6.9067e-07 
381 1 0.0355573 4.16741e-05 0.125481 55.845 -5.1401e-07 
382 1 0.0357715 0.0356645 0.167434 55.845 4.84485e-07 
383 1 0.0714211 0.0357783 0.12563 55.845 -6.32858e-07 
384 1 0.0714855 0.0713617 0.167456 55.845 8.30945e-07 
385 1 0.107239 0.0714783 0.125621 55.845 -8.14694e-07 
386 1 0.107076 0.107118 0.167589 55.845 1.03678e-06 
394 1 0.071265 1.419e-07 0.167357 55.845 3.75765e-07 
395 1 0.107108 -2.20928e-05 0.125467 55.845 -2.66221e-07 
396 1 0.107117 0.0356459 0.16735 55.845 5.35627e-07 
463 1 0 0.107143 0.0416667 55.845 3.93188e-07 
471 1 0 0.0357143 0.0416667 55.845 -5.87327e-07 
472 1 4.07326e-05 0.0713458 0.0841147 55.845 1.75854e-07 
473 1 0.0357143 0.0714286 0.0416667 55.845 -1.33562e-07 
474 1 0.0356154 0.107093 0.0841579 55.845 -3.80095e-07 
475 1 0.0714286 0.107143 0.0416667 55.845 1.88231e-07 
482 1 -4.32485e-05 8.16945e-05 0.084126 55.845 9.63103e-07 
483 1 0.0357143 0 0.0416667 55.845 -7.17935e-07 
484 1 0.0356729 0.0357527 0.0843187 55.845 6.88423e-07 
485 1 0.0714286 0.0357143 0.0416667 55.845 -6.40727e-07 
486 1 0.0714591 0.0714591 0.0842531 55.845 4.63354e-07 
487 1 0.107143 0.0714286 0.0416667 55.845 -5.51044e-07 
488 1 0.107219 0.107112 0.0842493 55.845 5.39704e-07 
496 1 0.0713579 9.90703e-05 0.0842615 55.845 6.54599e-07 
497 1 0.107143 0 0.0416667 55.845 -5.3332e-07 
498 1 0.107072 0.0357983 0.0841932 55.845 7.71911e-07 
567 1 0 0.0714286 0 55.845 -7.43559e-08 
568 1 0.0357143 0.107143 0 55.845 -9.17814e-08 
572 1 0 0 0 55.845 3.19457e-07 
573 1 0.0357143 0.0357143 0 55.845 3.64132e-07 
574 1 0.0714286 0.0714286 0 55.845 6.86707e-09 
575 1 0.107143 0.107143 0 55.845 1.69579e-07 
579 1 0.0714286 0 0 55.845 3.19488e-07 
580 1 0.107143 0.0357143 0 55.845 3.39626e-07 
285 1 0.142794 0.107047 0.209834 55.845 -6.12358e-07 
295 1 0.142812 0.0357329 0.209874 55.845 -3.35409e-07 
297 1 0.178646 0.0713581 0.209878 55.845 -4.21651e-07 
299 1 0.21439 0.10714 0.209803 55.845 -4.36961e-07 
307 1 0.178553 6.54581e-05 0.20987 55.845 5.76667e-08 
309 1 0.214394 0.0356705 0.209988 55.845 -2.11533e-07 
311 1 0.250025 0.0714546 0.20985 55.845 -3.6826e-07 
387 1 0.142785 0.107078 0.12566 55.845 -9.18833e-07 
397 1 0.142962 0.0358249 0.125785 55.845 -6.62692e-07 
398 1 0.142849 0.0714449 0.167764 55.845 9.54771e-07 
399 1 0.17846 0.0714056 0.125743 55.845 -8.18932e-07 
400 1 0.17852 0.107076 0.167441 55.845 8.21176e-07 
401 1 0.214201 0.107033 0.125645 55.845 -6.46195e-07 
408 1 0.142779 0.000138803 0.167605 55.845 1.94048e-07 
409 1 0.178558 7.92255e-05 0.125712 55.845 -1.55559e-07 
410 1 0.178615 0.0357046 0.167535 55.845 6.37466e-07 
411 1 0.214403 0.0357858 0.125814 55.845 -5.25362e-07 
412 1 0.214251 0.0714213 0.167692 55.845 7.28038e-07 
413 1 0.250055 0.0713194 0.125708 55.845 -6.6103e-07 
414 1 0.24999 0.107127 0.167072 55.845 6.5668e-07 
424 1 0.214311 4.74681e-05 0.167446 55.845 3.12075e-07 
426 1 0.250086 0.035733 0.16754 55.845 5.89441e-07 
489 1 0.142857 0.107143 0.0416667 55.845 -5.65692e-07 
499 1 0.142857 0.0357143 0.0416667 55.845 -6.24595e-07 
500 1 0.142868 0.0713618 0.0842744 55.845 8.75384e-07 
501 1 0.178571 0.0714286 0.0416667 55.845 -5.52065e-07 
502 1 0.178568 0.107131 0.084238 55.845 9.5209e-07 
503 1 0.214286 0.107143 0.0416667 55.845 -8.54373e-07 
510 1 0.14282 4.42616e-05 0.0842068 55.845 1.822e-07 
511 1 0.178571 0 0.0416667 55.845 7.4408e-08 
512 1 0.17873 0.0356735 0.0841936 55.845 6.0079e-07 
513 1 0.214286 0.0357143 0.0416667 55.845 -2.60591e-07 
514 1 0.214283 0.0714318 0.0842461 55.845 7.11701e-07 
515 1 0.25 0.0714286 0.0416667 55.845 -4.49332e-07 
516 1 0.249959 0.107096 0.0841758 55.845 9.18804e-07 
526 1 0.214324 4.99099e-05 0.0842133 55.845 -1.1786e-07 
528 1 0.250007 0.0357832 0.0843058 55.845 3.44069e-07 
581 1 0.142857 0.0714286 0 55.845 2.60394e-07 
582 1 0.178571 0.107143 0 55.845 3.12116e-07 
586 1 0.142857 0 0 55.845 1.07392e-07 
587 1 0.178571 0.0357143 0 55.845 8.20986e-08 
588 1 0.214286 0.0714286 0 55.845 2.84853e-07 
589 1 0.25 0.107143 0 55.845 3.23593e-07 
594 1 0.214286 0 0 55.845 -6.39511e-08 
595 1 0.25 0.0357143 0 55.845 1.91757e-09 
313 1 0.285709 0.107121 0.209769 55.845 -4.85469e-07 
323 1 0.250069 -3.39299e-05 0.209673 55.845 -2.11381e-07 
325 1 0.285709 0.0358067 0.209769 55.845 -3.19489e-07 
327 1 0.321395 0.0714213 0.209634 55.845 -3.38505e-07 
329 1 0.357255 0.107124 0.209719 55.845 -5.83712e-07 
337 1 0.321426 4.58365e-05 0.209518 55.845 -2.43938e-07 
339 1 0.357153 0.0357535 0.209664 55.845 -1.40986e-07 
415 1 0.285793 0.107108 0.125387 55.845 -8.70887e-07 
425 1 0.250044 -7.83446e-05 0.125602 55.845 -7.76717e-08 
427 1 0.285692 0.0356232 0.125593 55.845 -3.97908e-07 
428 1 0.285727 0.0713273 0.1675 55.845 7.27924e-07 
429 1 0.321402 0.0714987 0.125517 55.845 -5.60749e-07 
430 1 0.321349 0.107197 0.167379 55.845 8.43934e-07 
431 1 0.357069 0.107295 0.125732 55.845 -6.49231e-07 
439 1 0.321281 2.61683e-05 0.125588 55.845 -5.89079e-08 
440 1 0.3214 0.0357614 0.167299 55.845 5.30481e-07 
441 1 0.357143 0.0356511 0.125536 55.845 -2.7515e-07 
442 1 0.357096 0.071421 0.167176 55.845 6.16676e-07 
517 1 0.285714 0.107143 0.0416667 55.845 -7.44124e-07 
527 1 0.25 0 0.0416667 55.845 2.69567e-07 
529 1 0.285714 0.0357143 0.0416667 55.845 -1.13883e-07 
530 1 0.285757 0.0713684 0.0842582 55.845 6.21565e-07 
531 1 0.321429 0.0714286 0.0416667 55.845 -3.39654e-07 
532 1 0.321508 0.107144 0.0840938 55.845 8.44286e-07 
533 1 0.357143 0.107143 0.0416667 55.845 -4.64032e-07 
603 1 0.357143 0.0714286 0 55.845 1.38375e-07 
541 1 0.321429 0 0.0416667 55.845 2.06626e-07 
542 1 0.321401 0.0357838 0.0840196 55.845 2.82839e-07 
543 1 0.357143 0.0357143 0.0416667 55.845 6.01886e-08 
544 1 0.357116 0.0714209 0.0841833 55.845 3.98202e-07 
602 1 0.321429 0.0357143 0 55.845 -1.61578e-09 
596 1 0.285714 0.0714286 0 55.845 2.14389e-07 
597 1 0.321429 0.107143 0 55.845 2.30438e-07 
612 1 0.464286 0.0357143 0 55.845 2.96967e-07 
611 1 0.428571 0 0 55.845 1.5322e-09 
610 1 0.464286 0.107143 0 55.845 2.33963e-07 
609 1 0.428571 0.0714286 0 55.845 2.25669e-07 
608 1 0.392857 0.0357143 0 55.845 -3.80698e-08 
341 1 0.392837 0.0715377 0.209694 55.845 -6.33699e-08 
343 1 0.428561 0.107208 0.209641 55.845 -3.38119e-07 
348 1 0.392912 6.31901e-05 0.209634 55.845 8.631e-09 
350 1 0.428554 0.0356847 0.20967 55.845 -1.35867e-07 
352 1 0.464252 0.0715074 0.209875 55.845 -2.64334e-09 
355 1 0.46429 5.93683e-05 0.209745 55.845 2.45089e-07 
443 1 0.392903 0.0714255 0.125543 55.845 -3.82946e-07 
444 1 0.392842 0.107288 0.167339 55.845 5.90243e-07 
445 1 0.428536 0.107227 0.125588 55.845 -4.62824e-07 
604 1 0.392857 0.107143 0 55.845 1.95876e-07 
450 1 0.392868 2.3942e-05 0.125449 55.845 -6.81162e-08 
451 1 0.392861 0.0356597 0.167372 55.845 3.40334e-07 
452 1 0.428567 0.0357477 0.125502 55.845 -8.89628e-08 
453 1 0.428505 0.071414 0.167482 55.845 2.30649e-07 
454 1 0.464174 0.0714892 0.125736 55.845 -3.19299e-07 
455 1 0.46407 0.107247 0.167502 55.845 5.77797e-07 
456 1 0.428519 3.67253e-05 0.167344 55.845 1.72235e-07 
457 1 0.464309 3.55865e-06 0.12558 55.845 1.27369e-07 
458 1 0.464269 0.0357397 0.167543 55.845 4.8367e-09 
545 1 0.392857 0.0714286 0.0416667 55.845 -2.33497e-07 
546 1 0.392795 0.107212 0.0842704 55.845 5.58957e-07 
547 1 0.428571 0.107143 0.0416667 55.845 -5.37531e-07 
552 1 0.392857 0 0.0416667 55.845 3.67207e-07 
553 1 0.392859 0.0357319 0.0841657 55.845 1.40383e-07 
554 1 0.428571 0.0357143 0.0416667 55.845 -2.77233e-07 
555 1 0.428512 0.0715557 0.0842659 55.845 4.85854e-07 
556 1 0.464286 0.0714286 0.0416667 55.845 -5.63263e-07 
557 1 0.464323 0.107134 0.0839707 55.845 4.74408e-07 
558 1 0.428635 -5.6915e-05 0.084115 55.845 -5.23067e-08 
559 1 0.464286 0 0.0416667 55.845 -2.89732e-07 
560 1 0.464305 0.0358146 0.0840417 55.845 3.36705e-07 
255 1 3.12515e-05 0.178412 0.20975 55.845 1.0364e-07 
257 1 0.0357347 0.214239 0.209639 55.845 -1.83381e-07 
261 1 0.0357764 0.142834 0.209574 55.845 -4.27717e-07 
263 1 0.0714529 0.178583 0.2098 55.845 -4.06649e-07 
265 1 0.107114 0.21427 0.209819 55.845 -3.27661e-07 
273 1 0.107055 0.142858 0.209736 55.845 -6.86002e-07 
357 1 -7.69427e-05 0.178471 0.125563 55.845 6.95446e-07 
358 1 0.000138481 0.2142 0.167325 55.845 -7.40603e-08 
359 1 0.035745 0.214313 0.125638 55.845 9.58343e-08 
360 1 0.0358132 0.250064 0.167303 55.845 7.28579e-07 
362 1 5.83341e-05 0.142783 0.167456 55.845 -1.44671e-07 
363 1 0.0357294 0.142796 0.125464 55.845 1.74729e-07 
364 1 0.035718 0.178543 0.167309 55.845 1.65842e-07 
365 1 0.0713945 0.17855 0.125561 55.845 1.46213e-07 
366 1 0.0715174 0.214236 0.167296 55.845 3.67983e-07 
367 1 0.107185 0.214189 0.125651 55.845 -2.16072e-08 
368 1 0.107024 0.249831 0.167474 55.845 5.31173e-07 
374 1 0.0714107 0.142878 0.167205 55.845 7.3553e-07 
375 1 0.107199 0.142864 0.125699 55.845 -5.31032e-07 
376 1 0.107119 0.178534 0.167312 55.845 5.09775e-07 
459 1 0 0.178571 0.0416667 55.845 3.14074e-07 
460 1 -1.78288e-05 0.214343 0.0842491 55.845 -2.07988e-08 
461 1 0.0357143 0.214286 0.0416667 55.845 9.82813e-08 
462 1 0.0356952 0.250107 0.084134 55.845 3.58358e-07 
464 1 -6.9098e-05 0.142769 0.0841058 55.845 -6.6687e-07 
465 1 0.0357143 0.142857 0.0416667 55.845 6.18798e-07 
466 1 0.0357174 0.178521 0.0840223 55.845 -6.66739e-07 
467 1 0.0714286 0.178571 0.0416667 55.845 5.91254e-07 
468 1 0.0715202 0.214228 0.0842634 55.845 -2.96614e-07 
469 1 0.107143 0.214286 0.0416667 55.845 3.49931e-07 
470 1 0.107112 0.249948 0.0843136 55.845 -1.445e-07 
476 1 0.071465 0.142871 0.0841917 55.845 -2.59756e-07 
477 1 0.107143 0.142857 0.0416667 55.845 9.47014e-08 
478 1 0.107177 0.178551 0.084063 55.845 -2.83301e-07 
561 1 0 0.214286 0 55.845 6.65288e-08 
562 1 0.0357143 0.25 0 55.845 1.42112e-07 
563 1 0 0.142857 0 55.845 -3.43178e-07 
564 1 0.0357143 0.178571 0 55.845 -3.81142e-08 
565 1 0.0714286 0.214286 0 55.845 -1.46692e-07 
566 1 0.107143 0.25 0 55.845 -2.99722e-08 
569 1 0.0714286 0.142857 0 55.845 -3.33498e-07 
570 1 0.107143 0.178571 0 55.845 -2.09713e-08 
275 1 0.142802 0.178464 0.209514 55.845 -4.95603e-07 
277 1 0.178496 0.214214 0.209636 55.845 -2.49272e-07 
287 1 0.178547 0.142793 0.209625 55.845 -5.87245e-07 
289 1 0.214193 0.178513 0.209664 55.845 -4.19011e-07 
291 1 0.249988 0.214229 0.209555 55.845 -1.54118e-07 
301 1 0.249935 0.142801 0.209761 55.845 -3.99116e-07 
377 1 0.14277 0.178539 0.125452 55.845 -2.65171e-07 
378 1 0.142899 0.214175 0.16753 55.845 4.04738e-07 
379 1 0.178589 0.214227 0.125382 55.845 -3.05559e-08 
388 1 0.142811 0.142743 0.167352 55.845 9.41852e-07 
389 1 0.178584 0.142857 0.125559 55.845 -7.37432e-07 
390 1 0.178584 0.17857 0.167417 55.845 6.29351e-07 
391 1 0.214352 0.178485 0.125539 55.845 -2.77418e-07 
392 1 0.214302 0.214307 0.167435 55.845 2.72658e-07 
393 1 0.249967 0.214364 0.125515 55.845 -3.89206e-07 
402 1 0.214278 0.142736 0.167493 55.845 6.99814e-07 
403 1 0.24994 0.142806 0.125558 55.845 -8.69456e-07 
404 1 0.249923 0.178468 0.167347 55.845 8.57138e-07 
479 1 0.142857 0.178571 0.0416667 55.845 9.87491e-08 
480 1 0.14283 0.214218 0.0840388 55.845 -1.76772e-07 
481 1 0.178571 0.214286 0.0416667 55.845 1.69708e-07 
490 1 0.142833 0.142777 0.0843263 55.845 5.14735e-07 
491 1 0.178571 0.142857 0.0416667 55.845 -3.95727e-07 
492 1 0.178598 0.17859 0.0842443 55.845 1.11346e-07 
493 1 0.214286 0.178571 0.0416667 55.845 -2.4879e-07 
494 1 0.214343 0.214227 0.0841488 55.845 3.58772e-08 
495 1 0.25 0.214286 0.0416667 55.845 1.23506e-07 
504 1 0.214137 0.142915 0.0841501 55.845 7.58291e-07 
505 1 0.25 0.142857 0.0416667 55.845 -5.4226e-07 
506 1 0.250036 0.178533 0.0842844 55.845 4.56793e-07 
571 1 0.142857 0.214286 0 55.845 -9.47396e-08 
576 1 0.142857 0.142857 0 55.845 6.06271e-08 
577 1 0.178571 0.178571 0 55.845 6.32077e-08 
578 1 0.214286 0.214286 0 55.845 3.21229e-08 
583 1 0.214286 0.142857 0 55.845 2.65043e-07 
584 1 0.25 0.178571 0 55.845 8.96216e-08 
303 1 0.285647 0.178387 0.209553 55.845 -6.95825e-07 
305 1 0.321378 0.214267 0.209781 55.845 -7.89929e-07 
315 1 0.321439 0.142953 0.209676 55.845 -8.12414e-07 
317 1 0.357028 0.178453 0.209822 55.845 -9.53372e-07 
405 1 0.285651 0.17851 0.125598 55.845 -8.45709e-07 
406 1 0.285647 0.214282 0.167455 55.845 9.92656e-07 
407 1 0.321333 0.214408 0.125733 55.845 -8.17463e-07 
416 1 0.285636 0.142712 0.167449 55.845 1.08222e-06 
417 1 0.321445 0.142896 0.12557 55.845 -1.03883e-06 
418 1 0.321472 0.178606 0.167428 55.845 1.39746e-06 
419 1 0.357229 0.17858 0.125892 55.845 -7.91901e-07 
420 1 0.357059 0.214179 0.167503 55.845 9.71662e-07 
432 1 0.357144 0.142933 0.167648 55.845 1.1325e-06 
507 1 0.285714 0.178571 0.0416667 55.845 -1.33671e-07 
508 1 0.2856 0.214257 0.0843261 55.845 3.49827e-07 
509 1 0.321429 0.214286 0.0416667 55.845 7.00435e-08 
518 1 0.285707 0.14285 0.0841544 55.845 8.96624e-07 
519 1 0.321429 0.142857 0.0416667 55.845 -3.26181e-07 
520 1 0.321395 0.178681 0.084102 55.845 4.76668e-07 
521 1 0.357143 0.178571 0.0416667 55.845 -1.32769e-07 
522 1 0.357169 0.214237 0.0842457 55.845 3.84328e-07 
534 1 0.357151 0.142993 0.0842676 55.845 5.68022e-07 
585 1 0.285714 0.214286 0 55.845 -3.7999e-08 
590 1 0.285714 0.142857 0 55.845 1.80705e-07 
591 1 0.321429 0.178571 0 55.845 1.94536e-08 
592 1 0.357143 0.214286 0 55.845 5.31855e-08 
598 1 0.357143 0.142857 0 55.845 1.12393e-07 
319 1 0.392858 0.214204 0.209749 55.845 -5.46423e-07 
321 1 0.428606 0.249914 0.209832 55.845 -2.75369e-07 
331 1 0.392887 0.142911 0.209867 55.845 -6.09714e-07 
333 1 0.428535 0.178695 0.209854 55.845 -6.13318e-07 
335 1 0.464335 0.214322 0.209693 55.845 -4.10639e-07 
345 1 0.464299 0.142923 0.20986 55.845 -4.4497e-07 
606 1 0.464286 0.178571 0 55.845 3.73323e-08 
421 1 0.392798 0.214354 0.125602 55.845 -6.43652e-07 
422 1 0.392773 0.250095 0.167573 55.845 4.08764e-07 
423 1 0.428567 0.249978 0.125568 55.845 -2.54354e-07 
433 1 0.392809 0.142959 0.125566 55.845 -6.91821e-07 
434 1 0.392755 0.178677 0.167519 55.845 9.43061e-07 
435 1 0.428394 0.178622 0.125627 55.845 -5.37312e-07 
436 1 0.428534 0.214374 0.167423 55.845 6.75551e-07 
437 1 0.4642 0.214443 0.125609 55.845 -5.01417e-07 
605 1 0.428571 0.142857 0 55.845 1.35385e-07 
446 1 0.428461 0.142982 0.1675 55.845 7.18014e-07 
447 1 0.464146 0.142902 0.125665 55.845 -5.17017e-07 
448 1 0.464173 0.178678 0.167444 55.845 8.51745e-07 
523 1 0.392857 0.214286 0.0416667 55.845 -2.42112e-07 
524 1 0.392823 0.249978 0.0841871 55.845 4.12301e-07 
525 1 0.428571 0.25 0.0416667 55.845 -4.37886e-07 
535 1 0.392857 0.142857 0.0416667 55.845 -2.74284e-07 
536 1 0.392821 0.178647 0.0842127 55.845 4.30902e-07 
537 1 0.428571 0.178571 0.0416667 55.845 -2.21188e-07 
538 1 0.428612 0.214233 0.0843358 55.845 4.61467e-07 
539 1 0.464286 0.214286 0.0416667 55.845 -7.80952e-08 
548 1 0.428658 0.142942 0.0841014 55.845 5.3497e-07 
549 1 0.464286 0.142857 0.0416667 55.845 -4.11051e-08 
550 1 0.464296 0.178629 0.084101 55.845 1.76425e-07 
593 1 0.392857 0.25 0 55.845 1.6986e-07 
599 1 0.392857 0.178571 0 55.845 6.22843e-08 
600 1 0.428571 0.214286 0 55.845 1.46317e-07 
3 1 -7.63778e-05 0.107129 0.458803 55.845 -9.50208e-07 
7 1 -0.000166306 0.0357061 0.458617 55.845 -2.59827e-08 
8 1 0.035674 0.0714567 0.458741 55.845 -5.93202e-07 
9 1 0.0714631 0.107166 0.458792 55.845 -8.1161e-07 
13 1 0.0356653 0.000105055 0.4587 55.845 9.2931e-08 
14 1 0.0714389 0.0357816 0.458682 55.845 -2.33122e-07 
15 1 0.107118 0.0714116 0.458802 55.845 -4.00929e-07 
20 1 0.107083 -3.92898e-05 0.458645 55.845 -3.29239e-07 
55 1 -8.10021e-06 0.107127 0.375241 55.845 8.85697e-08 
63 1 -5.27093e-05 0.0356157 0.374971 55.845 4.80683e-07 
64 1 -3.25548e-06 0.0713279 0.416952 55.845 1.33371e-07 
65 1 0.0356592 0.0714696 0.375214 55.845 5.33173e-08 
66 1 0.0357501 0.107106 0.416935 55.845 6.89383e-07 
67 1 0.071449 0.107194 0.375248 55.845 -4.58126e-07 
74 1 3.27174e-05 3.61661e-05 0.416925 55.845 -4.38682e-07 
75 1 0.0356386 -6.31253e-06 0.375006 55.845 4.40522e-07 
76 1 0.0356369 0.0358104 0.41692 55.845 -3.44538e-08 
77 1 0.0713615 0.0355552 0.375142 55.845 9.00395e-08 
78 1 0.0713573 0.0713705 0.416878 55.845 3.25399e-07 
79 1 0.107099 0.0714191 0.375126 55.845 -2.9562e-07 
80 1 0.107218 0.107054 0.41693 55.845 6.74887e-07 
88 1 0.0713117 9.51343e-06 0.417059 55.845 -1.17672e-07 
89 1 0.107052 3.68642e-05 0.375171 55.845 1.18212e-07 
90 1 0.107124 0.0357254 0.416781 55.845 1.36632e-07 
157 1 -5.04742e-05 0.107073 0.291902 55.845 9.9063e-07 
165 1 -3.12571e-05 0.0355996 0.291831 55.845 8.12481e-07 
166 1 1.72293e-05 0.0714773 0.333652 55.845 -5.236e-07 
167 1 0.0356309 0.0714684 0.291976 55.845 7.7703e-07 
168 1 0.0355893 0.107126 0.33369 55.845 -3.25915e-07 
169 1 0.0713458 0.107136 0.291854 55.845 4.61767e-07 
176 1 -5.25211e-05 -8.09965e-05 0.333597 55.845 -6.05067e-07 
177 1 0.0356779 2.13846e-05 0.292006 55.845 6.14567e-07 
178 1 0.0356646 0.0357625 0.333539 55.845 -3.5232e-07 
179 1 0.0713848 0.0357208 0.291827 55.845 3.21009e-07 
180 1 0.07138 0.0715005 0.333742 55.845 5.73334e-08 
181 1 0.106905 0.0715207 0.291917 55.845 2.67758e-07 
182 1 0.107045 0.107126 0.333531 55.845 2.84421e-07 
190 1 0.0713391 -5.86295e-05 0.333464 55.845 -1.0758e-07 
191 1 0.10699 -7.33419e-06 0.291774 55.845 3.04415e-07 
192 1 0.107153 0.035659 0.333627 55.845 7.32828e-08 
268 1 9.33529e-05 0.0714261 0.251332 55.845 -7.76402e-07 
270 1 0.0357658 0.107227 0.251048 55.845 -6.79303e-07 
278 1 -7.81973e-05 9.02125e-05 0.251342 55.845 -6.55736e-07 
280 1 0.0356289 0.0357238 0.251252 55.845 -3.76664e-07 
282 1 0.0713355 0.0713328 0.251145 55.845 -3.28147e-07 
284 1 0.10707 0.107252 0.251286 55.845 -2.91043e-07 
292 1 0.0712435 4.8678e-05 0.251042 55.845 -3.5977e-07 
294 1 0.107146 0.035652 0.251316 55.845 -2.85328e-07 
16 1 0.142935 0.107089 0.458534 55.845 -3.18662e-07 
21 1 0.142795 0.0356015 0.458689 55.845 -2.82812e-07 
22 1 0.178507 0.0713642 0.458601 55.845 -1.5675e-08 
23 1 0.21438 0.107192 0.458463 55.845 2.65784e-07 
27 1 0.178436 -0.000209839 0.458452 55.845 -5.18023e-07 
28 1 0.214267 0.0356294 0.458545 55.845 -2.06921e-07 
29 1 0.25 0.0714074 0.458486 55.845 1.52952e-07 
81 1 0.142853 0.107177 0.374934 55.845 -3.24231e-07 
91 1 0.142903 0.0356998 0.374991 55.845 -5.49586e-08 
92 1 0.142841 0.0713018 0.416811 55.845 2.54564e-07 
93 1 0.178541 0.0715693 0.375166 55.845 1.36896e-07 
94 1 0.178572 0.107149 0.416786 55.845 -3.09556e-08 
95 1 0.214254 0.107183 0.375124 55.845 7.23816e-07 
102 1 0.142833 8.20451e-05 0.416736 55.845 2.34964e-07 
103 1 0.178531 -0.000115071 0.374897 55.845 5.49519e-08 
104 1 0.178517 0.0355879 0.416843 55.845 1.13733e-07 
105 1 0.214288 0.035729 0.375166 55.845 4.20303e-07 
106 1 0.214166 0.071407 0.416844 55.845 -1.02166e-07 
107 1 0.250031 0.0715684 0.375217 55.845 6.46959e-07 
108 1 0.249995 0.10717 0.416849 55.845 -6.73151e-07 
118 1 0.214331 2.32662e-05 0.416779 55.845 2.61433e-07 
120 1 0.249992 0.0357295 0.416722 55.845 -1.19184e-07 
183 1 0.142757 0.107238 0.291889 55.845 4.04749e-07 
193 1 0.142887 0.0356778 0.291864 55.845 5.47365e-07 
194 1 0.142742 0.0713695 0.333317 55.845 -3.92346e-08 
195 1 0.178588 0.0714831 0.292044 55.845 7.00942e-07 
196 1 0.17859 0.107253 0.33352 55.845 -1.62221e-07 
197 1 0.214281 0.107143 0.291788 55.845 7.93699e-07 
204 1 0.142788 -0.000195516 0.333538 55.845 -1.91879e-07 
205 1 0.178665 6.09425e-05 0.291695 55.845 9.11312e-07 
206 1 0.17861 0.0357715 0.333566 55.845 -2.72967e-07 
207 1 0.214443 0.0357549 0.291801 55.845 1.11599e-06 
208 1 0.214227 0.0713579 0.333663 55.845 -7.21968e-07 
209 1 0.250054 0.0715417 0.29199 55.845 9.53099e-07 
210 1 0.250001 0.10717 0.333565 55.845 -6.43831e-07 
220 1 0.214341 1.51239e-05 0.333591 55.845 -6.10765e-07 
222 1 0.250032 0.035791 0.333585 55.845 -5.80318e-07 
296 1 0.142817 0.0713824 0.251193 55.845 -3.61113e-07 
298 1 0.178571 0.107188 0.251256 55.845 -3.72692e-07 
306 1 0.142744 -2.64842e-05 0.25116 55.845 -5.76216e-07 
308 1 0.178642 0.0357807 0.25123 55.845 -8.55297e-07 
310 1 0.214364 0.0714706 0.25123 55.845 -5.55227e-07 
312 1 0.249965 0.107227 0.251117 55.845 -6.00276e-07 
322 1 0.214373 -2.43296e-05 0.251181 55.845 -9.48669e-07 
324 1 0.250054 0.0356793 0.251312 55.845 -7.97068e-07 
30 1 0.285761 0.107202 0.458648 55.845 2.10038e-07 
35 1 0.250082 -2.35362e-05 0.458685 55.845 -6.25777e-07 
36 1 0.285643 0.0358639 0.458672 55.845 -3.59856e-07 
37 1 0.321484 0.0714683 0.458564 55.845 -3.07965e-07 
38 1 0.357142 0.107102 0.458697 55.845 -3.42369e-07 
42 1 0.321375 -1.1088e-05 0.458646 55.845 -8.46801e-07 
43 1 0.35712 0.0358436 0.458576 55.845 -7.73376e-07 
109 1 0.285864 0.10703 0.375162 55.845 5.87528e-07 
119 1 0.250034 3.57354e-05 0.375114 55.845 3.37056e-07 
121 1 0.28573 0.0358077 0.37513 55.845 1.76387e-07 
122 1 0.285822 0.0714471 0.41674 55.845 -1.95376e-08 
123 1 0.321331 0.0713223 0.374912 55.845 -7.16392e-08 
124 1 0.321573 0.107166 0.416895 55.845 -1.18321e-07 
125 1 0.357021 0.107034 0.375088 55.845 3.02195e-08 
133 1 0.321331 2.57887e-05 0.375073 55.845 -1.42706e-07 
134 1 0.32137 0.0356785 0.416943 55.845 4.88265e-07 
135 1 0.357016 0.0356721 0.375052 55.845 -5.35135e-07 
136 1 0.35707 0.0712788 0.416608 55.845 5.18171e-07 
211 1 0.285737 0.107134 0.291973 55.845 7.68063e-07 
221 1 0.250078 -1.59991e-05 0.291908 55.845 8.48424e-07 
223 1 0.285717 0.035657 0.291987 55.845 8.01926e-07 
224 1 0.285741 0.0715038 0.333569 55.845 -4.25567e-07 
225 1 0.321438 0.0714219 0.291759 55.845 5.75109e-07 
226 1 0.32141 0.107091 0.333622 55.845 -2.01518e-07 
227 1 0.357038 0.107167 0.291959 55.845 6.05481e-07 
235 1 0.321364 -1.02815e-05 0.291842 55.845 4.22583e-07 
236 1 0.321368 0.035681 0.333533 55.845 2.12788e-08 
237 1 0.357167 0.0357644 0.291874 55.845 8.58017e-07 
238 1 0.357141 0.0713366 0.333423 55.845 9.33269e-09 
326 1 0.28562 0.0715257 0.25128 55.845 -5.15252e-07 
328 1 0.321474 0.107276 0.251096 55.845 -4.36171e-07 
338 1 0.321435 0.0357518 0.251181 55.845 -6.49093e-07 
340 1 0.357031 0.071478 0.250944 55.845 -5.88791e-07 
44 1 0.392765 0.0714115 0.458567 55.845 -5.24855e-07 
45 1 0.428552 0.10702 0.458693 55.845 1.85697e-08 
47 1 0.392936 2.80309e-05 0.458798 55.845 -1.00831e-06 
48 1 0.428451 0.035655 0.458641 55.845 -3.74376e-07 
49 1 0.464262 0.0712806 0.458622 55.845 6.47245e-08 
50 1 0.464171 2.02774e-05 0.458634 55.845 -5.85804e-07 
137 1 0.392741 0.0714236 0.374978 55.845 -1.20013e-07 
138 1 0.392819 0.107055 0.416779 55.845 1.20069e-07 
139 1 0.428567 0.107113 0.375281 55.845 3.72071e-07 
144 1 0.392818 -2.73082e-05 0.375152 55.845 -4.14946e-07 
145 1 0.392743 0.0357075 0.416874 55.845 7.33994e-07 
146 1 0.428515 0.0356807 0.375335 55.845 2.79252e-08 
147 1 0.428468 0.0712332 0.41685 55.845 -1.04232e-07 
148 1 0.464221 0.0714012 0.37515 55.845 7.40434e-07 
149 1 0.464204 0.10707 0.416919 55.845 -3.82024e-07 
150 1 0.428522 -0.000149196 0.416814 55.845 5.76107e-07 
151 1 0.46429 8.08242e-05 0.375249 55.845 1.8852e-07 
152 1 0.46428 0.0357271 0.416996 55.845 -1.51673e-07 
239 1 0.392799 0.0714721 0.291807 55.845 4.59911e-07 
240 1 0.392725 0.107088 0.333681 55.845 -1.7665e-07 
241 1 0.428464 0.107119 0.291799 55.845 7.12583e-07 
246 1 0.392766 0.000125143 0.291728 55.845 6.52231e-07 
247 1 0.392756 0.0356529 0.333659 55.845 3.08838e-08 
248 1 0.428472 0.0357498 0.291958 55.845 7.24367e-07 
249 1 0.428519 0.07141 0.333643 55.845 -1.72395e-07 
250 1 0.4642 0.0715665 0.291841 55.845 6.3618e-07 
251 1 0.464263 0.107216 0.333636 55.845 -5.63639e-07 
252 1 0.428561 6.4536e-05 0.333625 55.845 -1.53395e-07 
253 1 0.464225 -7.09339e-05 0.291823 55.845 6.20967e-07 
254 1 0.464281 0.035731 0.333598 55.845 -3.60928e-07 
342 1 0.392936 0.10718 0.251241 55.845 -4.57083e-07 
349 1 0.39279 0.0356947 0.251183 55.845 -7.95333e-07 
351 1 0.428596 0.0713707 0.251327 55.845 -5.83194e-07 
353 1 0.46422 0.107249 0.251071 55.845 -7.07315e-07 
354 1 0.428548 3.8923e-05 0.251327 55.845 -6.7595e-07 
356 1 0.464248 0.0356321 0.251141 55.845 -6.78601e-07 
1 1 -4.79325e-05 0.178523 0.458698 55.845 -8.51565e-07 
2 1 0.0356912 0.214265 0.458529 55.845 -8.71442e-07 
4 1 0.035668 0.142808 0.458815 55.845 -1.17832e-06 
5 1 0.0714377 0.178558 0.45854 55.845 -1.07128e-06 
6 1 0.107053 0.214444 0.458365 55.845 -1.10062e-06 
10 1 0.107031 0.142858 0.458568 55.845 -8.53648e-07 
51 1 -8.2518e-06 0.178541 0.375062 55.845 3.11097e-07 
52 1 -0.000112952 0.214321 0.416904 55.845 6.56122e-08 
53 1 0.0356256 0.214268 0.375192 55.845 -1.29469e-07 
54 1 0.0357212 0.249988 0.416581 55.845 3.83074e-07 
56 1 -4.24643e-05 0.14275 0.416686 55.845 3.96504e-07 
57 1 0.035638 0.142798 0.37515 55.845 -9.80832e-08 
58 1 0.0356231 0.178647 0.416958 55.845 4.64512e-07 
59 1 0.0714295 0.178548 0.375274 55.845 -4.37667e-07 
60 1 0.0714 0.214288 0.416592 55.845 8.73141e-07 
61 1 0.107068 0.214394 0.375355 55.845 -4.64642e-07 
62 1 0.107116 0.250121 0.416818 55.845 7.79328e-07 
68 1 0.071266 0.142819 0.416805 55.845 7.75673e-07 
69 1 0.107096 0.142811 0.375218 55.845 -5.06424e-07 
70 1 0.107054 0.178519 0.416981 55.845 7.88479e-07 
153 1 6.18837e-05 0.178567 0.292186 55.845 5.1073e-07 
154 1 -6.47785e-07 0.214269 0.333524 55.845 -3.60258e-07 
155 1 0.0357491 0.214256 0.291744 55.845 5.32791e-07 
156 1 0.0356755 0.250031 0.33353 55.845 -2.58409e-07 
158 1 1.21211e-05 0.14286 0.333736 55.845 -5.46344e-07 
159 1 0.0356562 0.142788 0.291851 55.845 6.83883e-07 
160 1 0.0357456 0.178707 0.3336 55.845 -1.87286e-08 
161 1 0.0714461 0.178597 0.291928 55.845 2.78226e-07 
162 1 0.0713836 0.214313 0.333547 55.845 4.3188e-08 
163 1 0.107099 0.214249 0.29186 55.845 4.2402e-07 
164 1 0.107052 0.249903 0.333473 55.845 9.90209e-08 
170 1 0.0713732 0.14296 0.333536 55.845 7.83225e-08 
171 1 0.107084 0.142792 0.291804 55.845 2.54215e-07 
172 1 0.107089 0.178602 0.333641 55.845 3.79117e-07 
256 1 0.000240222 0.214297 0.251141 55.845 -4.22833e-07 
258 1 0.0358042 0.250105 0.251114 55.845 -5.44969e-07 
260 1 -4.4045e-06 0.142772 0.251271 55.845 -5.54358e-07 
262 1 0.0356446 0.178522 0.251139 55.845 -5.3667e-07 
264 1 0.07143 0.214227 0.251121 55.845 -3.55325e-07 
266 1 0.107202 0.249966 0.251084 55.845 -5.27986e-07 
272 1 0.071414 0.142844 0.251096 55.845 -2.48597e-07 
274 1 0.107159 0.178472 0.251169 55.845 -3.4949e-07 
11 1 0.142787 0.178562 0.458639 55.845 -7.25321e-07 
12 1 0.178618 0.214417 0.458746 55.845 -9.58841e-07 
17 1 0.178535 0.142945 0.458364 55.845 -3.07255e-07 
18 1 0.214295 0.17858 0.458586 55.845 -1.47651e-07 
19 1 0.249903 0.214401 0.458584 55.845 -3.46663e-07 
24 1 0.250024 0.142902 0.458466 55.845 3.96466e-07 
71 1 0.142867 0.178617 0.375289 55.845 -3.1072e-07 
72 1 0.142876 0.214251 0.41668 55.845 6.53816e-07 
73 1 0.178578 0.214248 0.375001 55.845 1.98448e-07 
82 1 0.14276 0.142785 0.416854 55.845 4.64887e-07 
83 1 0.178461 0.142964 0.37511 55.845 2.69881e-07 
84 1 0.178503 0.178671 0.416902 55.845 1.5086e-07 
85 1 0.21422 0.178578 0.374928 55.845 4.96003e-07 
86 1 0.214293 0.214356 0.41668 55.845 2.28263e-07 
87 1 0.250112 0.214324 0.374971 55.845 4.96246e-07 
96 1 0.214232 0.142874 0.416805 55.845 -2.89468e-07 
97 1 0.250001 0.142814 0.375213 55.845 8.42549e-07 
98 1 0.249952 0.178681 0.416653 55.845 -4.12174e-07 
173 1 0.142823 0.178442 0.291793 55.845 4.29565e-07 
174 1 0.142835 0.21426 0.333454 55.845 -6.47473e-08 
175 1 0.178597 0.214243 0.291805 55.845 6.81899e-07 
184 1 0.142762 0.142903 0.333554 55.845 1.51574e-07 
185 1 0.178457 0.142918 0.291876 55.845 5.08089e-07 
186 1 0.178519 0.178562 0.333605 55.845 -2.13358e-07 
187 1 0.214199 0.178553 0.291745 55.845 8.54843e-07 
188 1 0.214336 0.214273 0.333546 55.845 -6.5162e-07 
189 1 0.250036 0.214209 0.291776 55.845 1.04897e-06 
198 1 0.214269 0.142957 0.333493 55.845 -6.96995e-07 
199 1 0.250016 0.142971 0.291808 55.845 9.05462e-07 
200 1 0.249945 0.178544 0.333438 55.845 -6.21675e-07 
276 1 0.142881 0.214308 0.251214 55.845 -4.63623e-07 
286 1 0.142883 0.142894 0.251119 55.845 -2.61715e-07 
288 1 0.178459 0.178593 0.250943 55.845 -3.74927e-07 
290 1 0.214278 0.214207 0.250933 55.845 -6.35726e-07 
300 1 0.214187 0.142881 0.251241 55.845 -3.05367e-07 
302 1 0.249973 0.178512 0.250971 55.845 -6.9656e-07 
25 1 0.285598 0.178624 0.458626 55.845 3.08279e-08 
26 1 0.321255 0.214316 0.45872 55.845 -4.6102e-07 
31 1 0.321471 0.142868 0.458755 55.845 2.91863e-08 
32 1 0.357195 0.178605 0.458712 55.845 -3.87434e-07 
99 1 0.285673 0.178524 0.375195 55.845 4.0575e-07 
100 1 0.285756 0.214388 0.416546 55.845 3.34238e-07 
101 1 0.321454 0.21432 0.375023 55.845 -3.99779e-08 
110 1 0.28574 0.142916 0.416816 55.845 -3.14737e-07 
111 1 0.321456 0.142869 0.37519 55.845 3.33381e-07 
112 1 0.321463 0.178597 0.416825 55.845 2.11701e-07 
113 1 0.357077 0.178585 0.375205 55.845 -5.41051e-08 
114 1 0.357028 0.214219 0.416987 55.845 5.33407e-07 
126 1 0.357198 0.142775 0.416689 55.845 1.06893e-07 
201 1 0.28574 0.178539 0.291817 55.845 9.82881e-07 
202 1 0.285782 0.214217 0.333472 55.845 -5.76767e-07 
203 1 0.321384 0.214195 0.291817 55.845 6.78898e-07 
212 1 0.285678 0.1428 0.333547 55.845 -6.58835e-07 
213 1 0.321419 0.142906 0.292115 55.845 6.26583e-07 
214 1 0.321333 0.178663 0.333628 55.845 -1.67734e-07 
215 1 0.357088 0.178516 0.291962 55.845 5.54985e-07 