ITEM: TIMESTEP
9300
ITEM: NUMBER OF ATOMS
5880
ITEM: BOX BOUNDS pp pp ff
-27.9747 27.9747
-27.9747 27.9747
0 34.092
ITEM: ATOMS id type xs ys zs mass q 
259 1 3.58495e-05 0.107157 0.207543 55.845 4.64173e-08 
267 1 8.28739e-05 0.035646 0.207722 55.845 2.16945e-07 
269 1 0.0356725 0.0712949 0.207708 55.845 3.42177e-07 
271 1 0.071331 0.107151 0.207532 55.845 5.42501e-07 
279 1 0.0356413 -0.000105401 0.207704 55.845 2.2793e-07 
281 1 0.0712771 0.0357898 0.207674 55.845 3.47958e-07 
283 1 0.10703 0.071457 0.207708 55.845 4.85392e-07 
293 1 0.107078 0.000116332 0.207343 55.845 2.29224e-07 
361 1 2.95617e-05 0.107052 0.124684 55.845 3.48874e-07 
369 1 3.2438e-05 0.035716 0.124848 55.845 -3.43037e-08 
370 1 -4.00396e-05 0.0713022 0.166548 55.845 -1.46098e-07 
371 1 0.0357717 0.0714276 0.124724 55.845 2.35814e-07 
372 1 0.0356015 0.107032 0.166317 55.845 -4.86344e-07 
373 1 0.0714374 0.10709 0.124706 55.845 5.08433e-07 
380 1 -4.74039e-05 -0.000120532 0.166504 55.845 -9.70674e-08 
381 1 0.0356724 6.95682e-05 0.124788 55.845 -2.00555e-07 
382 1 0.0356057 0.0356534 0.16656 55.845 -1.00339e-07 
383 1 0.0714528 0.0357422 0.12481 55.845 6.68952e-08 
384 1 0.07138 0.0715153 0.166572 55.845 -3.73788e-07 
385 1 0.107068 0.0714304 0.12487 55.845 4.03422e-07 
386 1 0.107162 0.10735 0.166565 55.845 -6.96961e-07 
394 1 0.0713236 -2.09872e-06 0.1665 55.845 -1.00571e-08 
395 1 0.107155 7.83616e-05 0.124734 55.845 -6.86569e-08 
396 1 0.106951 0.0358435 0.166637 55.845 -1.53477e-07 
463 1 0 0.107143 0.0416667 55.845 9.05944e-09 
471 1 0 0.0357143 0.0416667 55.845 -5.73505e-08 
472 1 1.61457e-05 0.0714697 0.0820517 55.845 -2.20039e-07 
473 1 0.0357143 0.0714286 0.0416667 55.845 -8.03505e-08 
474 1 0.0357403 0.107094 0.0821985 55.845 8.51162e-08 
475 1 0.0714286 0.107143 0.0416667 55.845 2.66975e-09 
482 1 -6.62337e-05 -2.0421e-05 0.0821518 55.845 1.84809e-08 
483 1 0.0357143 0 0.0416667 55.845 -1.91211e-07 
484 1 0.0356295 0.035646 0.0821922 55.845 -2.54912e-07 
485 1 0.0714286 0.0357143 0.0416667 55.845 2.01323e-07 
486 1 0.0713873 0.0714162 0.0820679 55.845 -1.60492e-07 
487 1 0.107143 0.0714286 0.0416667 55.845 2.476e-07 
488 1 0.107237 0.107144 0.0822499 55.845 -2.09363e-07 
496 1 0.0714801 4.09384e-06 0.0823234 55.845 -2.40806e-07 
497 1 0.107143 0 0.0416667 55.845 3.57516e-07 
498 1 0.107061 0.0357051 0.08221 55.845 -1.37828e-07 
567 1 0 0.0714286 0 55.845 -3.69115e-07 
568 1 0.0357143 0.107143 0 55.845 -2.60115e-07 
572 1 0 0 0 55.845 -1.95587e-08 
573 1 0.0357143 0.0357143 0 55.845 -4.33745e-07 
574 1 0.0714286 0.0714286 0 55.845 -3.28808e-07 
575 1 0.107143 0.107143 0 55.845 -2.12315e-07 
579 1 0.0714286 0 0 55.845 -4.39209e-07 
580 1 0.107143 0.0357143 0 55.845 -4.11926e-07 
285 1 0.142994 0.107214 0.207744 55.845 8.35116e-07 
295 1 0.142894 0.0357408 0.207801 55.845 3.02905e-07 
297 1 0.178717 0.0715593 0.207603 55.845 4.24633e-07 
299 1 0.214399 0.107174 0.207694 55.845 6.63151e-07 
307 1 0.178494 -0.000121414 0.207527 55.845 4.20583e-08 
309 1 0.214314 0.0356124 0.207513 55.845 4.80721e-07 
311 1 0.250098 0.0712784 0.207619 55.845 5.89312e-07 
387 1 0.142959 0.107129 0.124685 55.845 2.06183e-07 
397 1 0.142831 0.0355932 0.125111 55.845 2.06956e-07 
398 1 0.142893 0.0714944 0.166801 55.845 -3.60373e-07 
399 1 0.17852 0.0714299 0.125094 55.845 3.35091e-07 
400 1 0.178704 0.107317 0.166696 55.845 -4.7123e-07 
401 1 0.214389 0.107111 0.124986 55.845 2.07332e-07 
408 1 0.1428 1.84041e-05 0.166693 55.845 -1.5987e-08 
409 1 0.178562 2.06802e-05 0.125061 55.845 2.3892e-07 
410 1 0.178624 0.0356161 0.166802 55.845 -2.24475e-07 
411 1 0.214387 0.0355915 0.124842 55.845 2.14243e-07 
412 1 0.214393 0.0713916 0.166585 55.845 -4.14594e-07 
413 1 0.249935 0.071362 0.12476 55.845 4.11409e-07 
414 1 0.250123 0.107096 0.166552 55.845 -4.40737e-07 
424 1 0.214356 -0.000116129 0.166524 55.845 -2.35066e-07 
426 1 0.25005 0.0356822 0.166411 55.845 -4.56853e-07 
489 1 0.142857 0.107143 0.0416667 55.845 3.1277e-08 
499 1 0.142857 0.0357143 0.0416667 55.845 3.79956e-07 
500 1 0.142766 0.0713566 0.0824634 55.845 -1.79515e-07 
501 1 0.178571 0.0714286 0.0416667 55.845 1.37089e-07 
502 1 0.178612 0.10711 0.0824068 55.845 -4.71795e-07 
503 1 0.214286 0.107143 0.0416667 55.845 3.51922e-07 
510 1 0.142864 3.42996e-05 0.0822754 55.845 8.22112e-08 
511 1 0.178571 0 0.0416667 55.845 1.79664e-08 
512 1 0.178445 0.0357713 0.0822984 55.845 -3.10632e-08 
513 1 0.214286 0.0357143 0.0416667 55.845 4.64758e-08 
514 1 0.214256 0.0714002 0.0822751 55.845 -3.31151e-07 
515 1 0.25 0.0714286 0.0416667 55.845 1.34349e-07 
516 1 0.249945 0.107154 0.0824446 55.845 -4.55193e-07 
526 1 0.214066 -7.59099e-05 0.0823064 55.845 1.98048e-08 
528 1 0.249955 0.0356336 0.0822497 55.845 -3.71897e-07 
581 1 0.142857 0.0714286 0 55.845 -2.74555e-07 
582 1 0.178571 0.107143 0 55.845 -2.85851e-07 
586 1 0.142857 0 0 55.845 -3.2574e-07 
587 1 0.178571 0.0357143 0 55.845 -2.94432e-07 
588 1 0.214286 0.0714286 0 55.845 -3.60414e-07 
589 1 0.25 0.107143 0 55.845 -1.02466e-07 
594 1 0.214286 0 0 55.845 -4.09358e-07 
595 1 0.25 0.0357143 0 55.845 -4.20565e-07 
313 1 0.285895 0.10712 0.207556 55.845 6.25192e-07 
323 1 0.250129 2.76631e-05 0.207405 55.845 4.64107e-07 
325 1 0.285803 0.0358411 0.207725 55.845 6.85313e-07 
327 1 0.321592 0.0713841 0.207668 55.845 5.44879e-07 
329 1 0.357125 0.107022 0.207842 55.845 6.88589e-07 
337 1 0.321475 6.08312e-05 0.207684 55.845 4.68613e-07 
339 1 0.357159 0.0356238 0.207859 55.845 3.05688e-07 
415 1 0.285763 0.107045 0.124587 55.845 2.58e-07 
425 1 0.249948 4.98077e-05 0.124631 55.845 5.00181e-07 
427 1 0.285646 0.0356903 0.12462 55.845 3.18329e-07 
428 1 0.285762 0.0713891 0.166442 55.845 -4.97302e-07 
429 1 0.321366 0.071419 0.124692 55.845 3.90798e-07 
430 1 0.32143 0.107055 0.166445 55.845 -5.93005e-07 
431 1 0.35725 0.107093 0.124888 55.845 2.81333e-07 
439 1 0.321459 1.58564e-05 0.124604 55.845 4.45821e-07 
440 1 0.321492 0.0357693 0.166582 55.845 -4.5248e-07 
441 1 0.357213 0.0356935 0.12465 55.845 2.64998e-07 
442 1 0.3572 0.0714439 0.166557 55.845 -3.56247e-07 
517 1 0.285714 0.107143 0.0416667 55.845 5.76065e-07 
527 1 0.25 0 0.0416667 55.845 -3.75305e-08 
529 1 0.285714 0.0357143 0.0416667 55.845 3.09719e-07 
530 1 0.285744 0.0714066 0.0822766 55.845 -4.28352e-07 
531 1 0.321429 0.0714286 0.0416667 55.845 2.2855e-07 
532 1 0.321529 0.107179 0.0822515 55.845 -4.33707e-07 
533 1 0.357143 0.107143 0.0416667 55.845 1.48754e-07 
603 1 0.357143 0.0714286 0 55.845 -2.43806e-07 
541 1 0.321429 0 0.0416667 55.845 2.13249e-07 
542 1 0.321538 0.0357866 0.0821662 55.845 -2.02542e-07 
543 1 0.357143 0.0357143 0.0416667 55.845 9.9407e-08 
544 1 0.357085 0.0714205 0.0821564 55.845 -1.55486e-07 
602 1 0.321429 0.0357143 0 55.845 -1.57642e-07 
596 1 0.285714 0.0714286 0 55.845 -4.3815e-07 
597 1 0.321429 0.107143 0 55.845 -3.24138e-07 
612 1 0.464286 0.0357143 0 55.845 -4.14116e-07 
611 1 0.428571 0 0 55.845 -1.71955e-07 
610 1 0.464286 0.107143 0 55.845 -5.55016e-07 
609 1 0.428571 0.0714286 0 55.845 -5.04779e-07 
608 1 0.392857 0.0357143 0 55.845 -4.24293e-08 
341 1 0.392908 0.0713463 0.207716 55.845 3.34788e-07 
343 1 0.428715 0.107127 0.207782 55.845 4.93929e-07 
348 1 0.393011 6.90002e-05 0.207655 55.845 8.62663e-08 
350 1 0.428592 0.0356515 0.20773 55.845 2.47754e-07 
352 1 0.464308 0.0713035 0.207727 55.845 3.45326e-07 
355 1 0.464429 -0.000228498 0.207625 55.845 7.79389e-08 
443 1 0.392997 0.0714454 0.124684 55.845 2.71122e-07 
444 1 0.392864 0.107002 0.166685 55.845 -5.18432e-07 
445 1 0.428679 0.107159 0.12503 55.845 6.08024e-07 
604 1 0.392857 0.107143 0 55.845 -5.00326e-07 
450 1 0.392839 -3.91395e-05 0.124776 55.845 -4.84007e-08 
451 1 0.39287 0.0357041 0.166535 55.845 -7.94386e-08 
452 1 0.428637 0.0358257 0.124885 55.845 4.64558e-08 
453 1 0.428672 0.0713625 0.166702 55.845 -1.88508e-07 
454 1 0.464387 0.0714155 0.124884 55.845 3.34232e-07 
455 1 0.464222 0.107102 0.166668 55.845 -5.2225e-07 
456 1 0.428643 2.57371e-05 0.166382 55.845 8.5301e-08 
457 1 0.464346 -5.5078e-05 0.124861 55.845 -2.55955e-07 
458 1 0.464435 0.0357298 0.166656 55.845 -5.15116e-09 
545 1 0.392857 0.0714286 0.0416667 55.845 2.9131e-07 
546 1 0.392894 0.107245 0.0823007 55.845 -2.79332e-07 
547 1 0.428571 0.107143 0.0416667 55.845 4.84948e-07 
552 1 0.392857 0 0.0416667 55.845 -2.10285e-07 
553 1 0.392908 0.0357342 0.0823279 55.845 -2.57233e-08 
554 1 0.428571 0.0357143 0.0416667 55.845 8.70628e-08 
555 1 0.428609 0.07133 0.082361 55.845 -3.20353e-07 
556 1 0.464286 0.0714286 0.0416667 55.845 4.86924e-07 
557 1 0.464277 0.107193 0.0823946 55.845 -1.82624e-07 
558 1 0.428575 1.87434e-05 0.0823612 55.845 -3.26473e-08 
559 1 0.464286 0 0.0416667 55.845 1.26711e-07 
560 1 0.464295 0.0357404 0.0822949 55.845 -3.5475e-07 
255 1 3.09444e-05 0.178661 0.207753 55.845 9.51211e-08 
257 1 0.0357308 0.214296 0.207585 55.845 3.48187e-07 
261 1 0.035716 0.14285 0.207485 55.845 3.45851e-07 
263 1 0.07148 0.178562 0.207625 55.845 5.12235e-07 
265 1 0.107188 0.214338 0.207542 55.845 5.23734e-07 
273 1 0.107107 0.142808 0.207668 55.845 9.03241e-07 
357 1 0.000119116 0.178629 0.124816 55.845 3.5437e-07 
358 1 5.51722e-05 0.21433 0.166458 55.845 -2.09806e-07 
359 1 0.0357018 0.214288 0.124937 55.845 3.22311e-07 
360 1 0.0358715 0.250096 0.166421 55.845 -3.2399e-07 
362 1 -1.93847e-05 0.142889 0.166537 55.845 -1.29388e-07 
363 1 0.0358308 0.142792 0.12471 55.845 5.00132e-07 
364 1 0.0357656 0.178537 0.166568 55.845 -3.71689e-07 
365 1 0.0715287 0.178567 0.124968 55.845 4.52969e-07 
366 1 0.0712947 0.214299 0.166759 55.845 -4.16741e-07 
367 1 0.1071 0.214314 0.124722 55.845 3.25051e-07 
368 1 0.107241 0.249939 0.166488 55.845 -3.796e-07 
374 1 0.0713392 0.142843 0.166577 55.845 -6.38975e-07 
375 1 0.107088 0.142947 0.124635 55.845 4.83768e-07 
376 1 0.107264 0.17856 0.166649 55.845 -6.94654e-07 
459 1 0 0.178571 0.0416667 55.845 4.94587e-07 
460 1 4.10317e-05 0.214266 0.0822812 55.845 -1.86274e-07 
461 1 0.0357143 0.214286 0.0416667 55.845 9.01043e-08 
462 1 0.0357623 0.250026 0.0822177 55.845 -2.45908e-07 
464 1 2.32626e-05 0.142788 0.0822066 55.845 -3.15412e-08 
465 1 0.0357143 0.142857 0.0416667 55.845 2.02729e-07 
466 1 0.0357768 0.178552 0.0824201 55.845 -8.67916e-09 
467 1 0.0714286 0.178571 0.0416667 55.845 -7.41453e-08 
468 1 0.071381 0.214434 0.0822989 55.845 -1.50438e-07 
469 1 0.107143 0.214286 0.0416667 55.845 -4.90054e-08 
470 1 0.107269 0.249959 0.082149 55.845 -7.56724e-08 
476 1 0.0713922 0.142898 0.0821579 55.845 4.13843e-08 
477 1 0.107143 0.142857 0.0416667 55.845 -1.61327e-07 
478 1 0.107145 0.178626 0.0822705 55.845 -2.75973e-07 
561 1 0 0.214286 0 55.845 -5.74476e-07 
562 1 0.0357143 0.25 0 55.845 -4.91046e-07 
563 1 0 0.142857 0 55.845 -4.64476e-07 
564 1 0.0357143 0.178571 0 55.845 -4.50248e-07 
565 1 0.0714286 0.214286 0 55.845 -3.24154e-07 
566 1 0.107143 0.25 0 55.845 -9.55822e-08 
569 1 0.0714286 0.142857 0 55.845 -1.54332e-07 
570 1 0.107143 0.178571 0 55.845 -3.281e-07 
275 1 0.142891 0.178467 0.207633 55.845 7.95909e-07 
277 1 0.178603 0.214198 0.207612 55.845 5.84943e-07 
287 1 0.178537 0.142845 0.207749 55.845 8.82066e-07 
289 1 0.214274 0.178522 0.207533 55.845 4.94576e-07 
291 1 0.249998 0.214205 0.207711 55.845 5.09576e-07 
301 1 0.250038 0.142817 0.207694 55.845 5.76683e-07 
377 1 0.142927 0.178551 0.124873 55.845 2.31032e-07 
378 1 0.142999 0.214261 0.166624 55.845 -4.75419e-07 
379 1 0.178601 0.214227 0.124866 55.845 1.57941e-07 
388 1 0.142865 0.142809 0.166544 55.845 -7.26957e-07 
389 1 0.178706 0.142883 0.124881 55.845 2.78454e-07 
390 1 0.178709 0.178526 0.166728 55.845 -6.12396e-07 
391 1 0.214408 0.178636 0.124786 55.845 1.90402e-07 
392 1 0.214315 0.214282 0.166389 55.845 -3.85241e-07 
393 1 0.250015 0.214289 0.124741 55.845 1.43897e-07 
402 1 0.214474 0.142859 0.166467 55.845 -5.31788e-07 
403 1 0.250056 0.142886 0.124789 55.845 4.04593e-07 
404 1 0.249997 0.178583 0.16646 55.845 -5.325e-07 
479 1 0.142857 0.178571 0.0416667 55.845 -2.39184e-08 
480 1 0.142949 0.214268 0.0822589 55.845 -2.58439e-07 
481 1 0.178571 0.214286 0.0416667 55.845 1.86311e-07 
490 1 0.142966 0.142828 0.0820598 55.845 -4.94571e-07 
491 1 0.178571 0.142857 0.0416667 55.845 1.00704e-07 
492 1 0.178644 0.178586 0.0822296 55.845 -3.3967e-07 
493 1 0.214286 0.178571 0.0416667 55.845 1.82681e-07 
494 1 0.214321 0.214297 0.0823525 55.845 -3.22891e-07 
495 1 0.25 0.214286 0.0416667 55.845 -3.15826e-07 
504 1 0.21432 0.142854 0.082154 55.845 -4.24479e-07 
505 1 0.25 0.142857 0.0416667 55.845 2.88792e-07 
506 1 0.250103 0.178538 0.0821532 55.845 -6.5624e-08 
571 1 0.142857 0.214286 0 55.845 -2.38794e-08 
576 1 0.142857 0.142857 0 55.845 -3.15705e-07 
577 1 0.178571 0.178571 0 55.845 -2.56391e-07 
578 1 0.214286 0.214286 0 55.845 6.2111e-08 
583 1 0.214286 0.142857 0 55.845 3.42524e-08 
584 1 0.25 0.178571 0 55.845 1.59306e-07 
303 1 0.285644 0.178538 0.207611 55.845 5.29812e-07 
305 1 0.321397 0.214323 0.207695 55.845 6.32696e-07 
315 1 0.321418 0.142847 0.207771 55.845 7.54337e-07 
317 1 0.357122 0.178546 0.207504 55.845 7.61278e-07 
405 1 0.285659 0.178484 0.124634 55.845 2.72595e-07 
406 1 0.285675 0.214228 0.166311 55.845 -5.82074e-07 
407 1 0.321434 0.21424 0.124734 55.845 4.43403e-07 
416 1 0.285773 0.142782 0.166537 55.845 -5.41911e-07 
417 1 0.321469 0.14284 0.124766 55.845 2.99253e-07 
418 1 0.32133 0.178579 0.166555 55.845 -7.72062e-07 
419 1 0.357161 0.178568 0.124914 55.845 3.79863e-07 
420 1 0.357166 0.214325 0.16653 55.845 -6.67778e-07 
432 1 0.357063 0.142699 0.166642 55.845 -5.48437e-07 
507 1 0.285714 0.178571 0.0416667 55.845 -9.83784e-08 
508 1 0.285588 0.214239 0.0822702 55.845 -2.10344e-07 
509 1 0.321429 0.214286 0.0416667 55.845 -2.45831e-07 
518 1 0.285769 0.142838 0.0822465 55.845 -2.78943e-07 
519 1 0.321429 0.142857 0.0416667 55.845 -8.61692e-08 
520 1 0.321483 0.17867 0.0823339 55.845 -5.45261e-08 
521 1 0.357143 0.178571 0.0416667 55.845 -3.09781e-07 
522 1 0.357102 0.214445 0.08231 55.845 -1.30843e-07 
534 1 0.357183 0.142966 0.0822849 55.845 -2.09069e-07 
585 1 0.285714 0.214286 0 55.845 -2.58065e-08 
590 1 0.285714 0.142857 0 55.845 -9.0554e-08 
591 1 0.321429 0.178571 0 55.845 -9.79586e-08 
592 1 0.357143 0.214286 0 55.845 -1.89835e-07 
598 1 0.357143 0.142857 0 55.845 -3.79559e-07 
319 1 0.392924 0.214325 0.207726 55.845 6.33419e-07 
321 1 0.428498 0.250041 0.207669 55.845 6.84777e-07 
331 1 0.392938 0.142817 0.20776 55.845 6.32871e-07 
333 1 0.428754 0.178495 0.207597 55.845 5.91209e-07 
335 1 0.464329 0.214192 0.207699 55.845 7.90667e-07 
345 1 0.464379 0.142872 0.207811 55.845 4.72707e-07 
606 1 0.464286 0.178571 0 55.845 -4.49142e-07 
421 1 0.392895 0.214272 0.124731 55.845 7.95503e-07 
422 1 0.392839 0.250032 0.166384 55.845 -6.11088e-07 
423 1 0.428529 0.249968 0.124685 55.845 5.58024e-07 
433 1 0.392892 0.142778 0.124865 55.845 5.26948e-07 
434 1 0.39288 0.178459 0.166686 55.845 -7.29822e-07 
435 1 0.428608 0.178612 0.124705 55.845 7.69582e-07 
436 1 0.428591 0.214156 0.166729 55.845 -7.17491e-07 
437 1 0.464187 0.214317 0.124589 55.845 9.05102e-07 
605 1 0.428571 0.142857 0 55.845 -4.42187e-07 
446 1 0.428612 0.14281 0.166553 55.845 -5.22691e-07 
447 1 0.464296 0.142833 0.124649 55.845 8.49843e-07 
448 1 0.464395 0.178483 0.166521 55.845 -8.47604e-07 
523 1 0.392857 0.214286 0.0416667 55.845 1.9596e-07 
524 1 0.392717 0.249913 0.0821534 55.845 -4.71748e-07 
525 1 0.428571 0.25 0.0416667 55.845 6.54567e-07 
535 1 0.392857 0.142857 0.0416667 55.845 -2.37649e-08 
536 1 0.392922 0.178537 0.0823336 55.845 -1.99761e-07 
537 1 0.428571 0.178571 0.0416667 55.845 2.74322e-07 
538 1 0.428604 0.214288 0.082228 55.845 -4.91733e-07 
539 1 0.464286 0.214286 0.0416667 55.845 1.77019e-07 
548 1 0.428497 0.142899 0.0823268 55.845 -1.88025e-07 
549 1 0.464286 0.142857 0.0416667 55.845 4.78938e-08 
550 1 0.464181 0.17845 0.0820803 55.845 -5.17934e-08 
593 1 0.392857 0.25 0 55.845 -4.5568e-07 
599 1 0.392857 0.178571 0 55.845 -4.17769e-07 
600 1 0.428571 0.214286 0 55.845 -6.89594e-07 
3 1 8.51105e-05 0.107188 0.459392 55.845 -3.08925e-07 
7 1 -2.23276e-05 0.0356849 0.459258 55.845 -2.58822e-07 
8 1 0.0358268 0.0713606 0.459226 55.845 -3.39415e-07 
9 1 0.0713804 0.107351 0.459425 55.845 -2.51157e-08 
13 1 0.0358155 1.93e-05 0.459584 55.845 -9.76768e-08 
14 1 0.0715995 0.0357198 0.459449 55.845 -2.83352e-07 
15 1 0.107193 0.0714872 0.459035 55.845 -4.54565e-08 
20 1 0.107174 4.51895e-05 0.459377 55.845 -3.15663e-08 
55 1 7.92523e-05 0.107108 0.376458 55.845 1.3248e-07 
63 1 6.06508e-05 0.0357066 0.376525 55.845 2.46286e-08 
64 1 1.23424e-05 0.0714005 0.4186 55.845 1.04514e-07 
65 1 0.0357929 0.0714234 0.37649 55.845 4.09009e-08 
66 1 0.0358258 0.107163 0.418605 55.845 -1.88707e-07 
67 1 0.0715005 0.107101 0.376511 55.845 2.11466e-07 
74 1 4.33811e-05 2.23343e-05 0.418603 55.845 -1.47651e-07 
75 1 0.0357761 -0.0001215 0.376489 55.845 7.75695e-08 
76 1 0.0358275 0.0355993 0.418705 55.845 7.19376e-08 
77 1 0.0715178 0.0356372 0.376588 55.845 9.565e-08 
78 1 0.0714878 0.0714416 0.418725 55.845 -6.52807e-08 
79 1 0.107243 0.0714011 0.376398 55.845 -7.52321e-09 
80 1 0.107228 0.107224 0.418345 55.845 -3.38058e-07 
88 1 0.0714539 -4.85601e-05 0.418516 55.845 -3.51041e-08 
89 1 0.107151 -9.55144e-05 0.376311 55.845 4.7562e-08 
90 1 0.107242 0.0356246 0.418464 55.845 2.67184e-09 
157 1 6.73032e-05 0.107112 0.291505 55.845 3.89369e-07 
165 1 0.000146348 0.035815 0.291216 55.845 6.82515e-07 
166 1 3.73495e-05 0.0714199 0.33461 55.845 -4.682e-08 
167 1 0.035778 0.0714148 0.291458 55.845 6.47139e-07 
168 1 0.0357187 0.106981 0.334508 55.845 -1.98836e-07 
169 1 0.0714238 0.107075 0.291361 55.845 5.13749e-07 
176 1 0.00016835 7.57733e-05 0.334534 55.845 -4.98788e-07 
177 1 0.0357071 -6.71865e-05 0.291393 55.845 7.69388e-07 
178 1 0.0357554 0.0356456 0.334733 55.845 -2.12072e-07 
179 1 0.0714738 0.035678 0.291491 55.845 7.91424e-07 
180 1 0.0713929 0.071381 0.334616 55.845 -2.39604e-07 
181 1 0.107163 0.0714324 0.291433 55.845 5.47869e-07 
182 1 0.10713 0.107123 0.334489 55.845 -3.26014e-07 
190 1 0.071322 -2.76949e-05 0.334571 55.845 -3.10556e-07 
191 1 0.10711 -4.20455e-05 0.291246 55.845 4.80414e-07 
192 1 0.107076 0.0356588 0.33463 55.845 -3.20428e-07 
268 1 1.98255e-05 0.0713998 0.248928 55.845 -2.4179e-07 
270 1 0.0355956 0.107233 0.248761 55.845 -5.29327e-07 
278 1 -3.21477e-05 -9.30734e-06 0.249035 55.845 -1.89276e-07 
280 1 0.0358594 0.0356623 0.249032 55.845 -3.98902e-07 
282 1 0.0713663 0.0714881 0.248988 55.845 -6.50804e-07 
284 1 0.107198 0.107132 0.249019 55.845 -6.38429e-07 
292 1 0.0713579 -2.15165e-06 0.248739 55.845 -2.61939e-07 
294 1 0.107113 0.0357418 0.248805 55.845 -6.18473e-07 
16 1 0.142854 0.107169 0.459059 55.845 -1.0477e-07 
21 1 0.142868 0.0357023 0.45903 55.845 -1.70895e-08 
22 1 0.17869 0.0715402 0.458998 55.845 -2.91308e-07 
23 1 0.214386 0.107161 0.458822 55.845 -4.10512e-07 
27 1 0.178406 -4.21257e-05 0.459253 55.845 -6.7748e-08 
28 1 0.214338 0.0356468 0.458957 55.845 -3.58602e-07 
29 1 0.250091 0.071375 0.459149 55.845 -5.91887e-07 
81 1 0.142927 0.107118 0.376167 55.845 1.06258e-07 
91 1 0.142913 0.0357349 0.376319 55.845 -2.25342e-08 
92 1 0.142944 0.0714524 0.418403 55.845 -1.39566e-07 
93 1 0.178671 0.0713776 0.376209 55.845 -1.89803e-07 
94 1 0.178531 0.10714 0.418308 55.845 1.5079e-07 
95 1 0.214314 0.107179 0.376344 55.845 -5.09594e-07 
102 1 0.143008 -0.000138386 0.41839 55.845 -2.70102e-07 
103 1 0.178611 -1.58915e-05 0.376185 55.845 1.84382e-07 
104 1 0.17864 0.0356251 0.418152 55.845 -1.15403e-07 
105 1 0.214361 0.0357773 0.376277 55.845 -3.08956e-09 
106 1 0.214333 0.0714266 0.418235 55.845 2.15981e-07 
107 1 0.250056 0.0714317 0.376224 55.845 -4.91227e-07 
108 1 0.250103 0.107121 0.418406 55.845 6.11407e-07 
118 1 0.214225 -3.1605e-05 0.418442 55.845 -2.58111e-07 
120 1 0.250006 0.0356817 0.41842 55.845 1.56512e-07 
183 1 0.142929 0.10716 0.291204 55.845 7.98997e-07 
193 1 0.142844 0.0356166 0.291403 55.845 3.41985e-07 
194 1 0.142763 0.0715092 0.334487 55.845 -2.39551e-07 
195 1 0.1786 0.0714297 0.291273 55.845 5.94667e-07 
196 1 0.17871 0.107126 0.334607 55.845 -3.09903e-07 
197 1 0.214328 0.107109 0.291229 55.845 5.89913e-07 
204 1 0.142724 -5.32376e-05 0.334723 55.845 -1.62959e-07 
205 1 0.178527 -0.000137275 0.291316 55.845 3.25974e-07 
206 1 0.17862 0.0356981 0.334496 55.845 -1.93992e-07 
207 1 0.214396 0.035715 0.29121 55.845 4.45072e-07 
208 1 0.214252 0.0714488 0.334499 55.845 3.49221e-08 
209 1 0.249959 0.0714188 0.291521 55.845 6.05424e-07 
210 1 0.250131 0.107229 0.334593 55.845 -1.64565e-07 
220 1 0.214222 8.77788e-05 0.334351 55.845 -1.40352e-07 
222 1 0.250087 0.0355218 0.334481 55.845 3.68192e-09 
296 1 0.142822 0.0714796 0.248884 55.845 -7.55662e-07 
298 1 0.178666 0.107273 0.249034 55.845 -5.74921e-07 
306 1 0.142712 -0.000177777 0.248907 55.845 -5.36766e-07 
308 1 0.17859 0.0355791 0.24893 55.845 -4.66573e-07 
310 1 0.214396 0.0714262 0.248829 55.845 -4.7068e-07 
312 1 0.250091 0.107258 0.248847 55.845 -5.66907e-07 
322 1 0.214364 4.4826e-06 0.248868 55.845 -4.10767e-07 
324 1 0.2501 0.0358179 0.24886 55.845 -4.39493e-07 
30 1 0.285889 0.107172 0.459321 55.845 -6.03189e-07 
35 1 0.250034 -0.000144102 0.459275 55.845 -4.27136e-07 
36 1 0.285695 0.0356978 0.459111 55.845 -4.29163e-07 
37 1 0.321495 0.071507 0.45915 55.845 -3.84291e-07 
38 1 0.357176 0.107065 0.459546 55.845 -4.67291e-07 
42 1 0.321442 -6.94747e-05 0.459163 55.845 -4.13224e-08 
43 1 0.357134 0.0357539 0.45915 55.845 1.06322e-07 
109 1 0.285848 0.107253 0.376492 55.845 -6.39086e-07 
119 1 0.249832 -5.92542e-06 0.37625 55.845 1.94936e-07 
121 1 0.285768 0.0357219 0.376593 55.845 -1.68636e-07 
122 1 0.285731 0.0715355 0.418216 55.845 3.7374e-07 
123 1 0.321526 0.0714794 0.376397 55.845 -4.73422e-07 
124 1 0.321501 0.107199 0.418692 55.845 3.39184e-07 
125 1 0.357217 0.107197 0.376501 55.845 -2.36518e-07 
133 1 0.321536 7.81736e-06 0.376311 55.845 1.65451e-07 
134 1 0.321434 0.0357637 0.418411 55.845 -1.12216e-07 
135 1 0.357203 0.035736 0.376414 55.845 4.58788e-08 
136 1 0.357163 0.0715574 0.418488 55.845 -1.73984e-08 
211 1 0.285843 0.107115 0.291381 55.845 2.96118e-07 
221 1 0.25007 -3.25201e-06 0.291305 55.845 7.98499e-07 
223 1 0.285732 0.035709 0.291424 55.845 5.47488e-07 
224 1 0.285767 0.0714076 0.334701 55.845 1.41903e-07 
225 1 0.321412 0.071318 0.291553 55.845 3.57056e-07 
226 1 0.321498 0.107184 0.334558 55.845 1.64561e-07 
227 1 0.357189 0.107312 0.291259 55.845 4.61251e-07 
235 1 0.321574 3.98088e-05 0.291382 55.845 7.17662e-07 
236 1 0.321455 0.0357341 0.334733 55.845 -2.40835e-07 
237 1 0.357203 0.0356559 0.291378 55.845 3.2207e-07 
238 1 0.357253 0.0715344 0.334478 55.845 -1.37161e-08 
326 1 0.285857 0.0714652 0.249005 55.845 -5.15961e-07 
328 1 0.321547 0.107032 0.248957 55.845 -4.11118e-07 
338 1 0.321552 0.0357851 0.248959 55.845 -5.71241e-07 
340 1 0.357307 0.071399 0.249018 55.845 -5.9985e-07 
44 1 0.39297 0.0715728 0.459172 55.845 -2.18368e-07 
45 1 0.428658 0.107082 0.459263 55.845 -5.27357e-07 
47 1 0.392976 -1.66599e-06 0.459236 55.845 3.89246e-07 
48 1 0.428727 0.0356596 0.458888 55.845 -2.48801e-08 
49 1 0.464325 0.071401 0.459134 55.845 -3.31742e-07 
50 1 0.464273 6.97887e-05 0.459028 55.845 3.1839e-07 
137 1 0.39286 0.0716359 0.376387 55.845 -1.98844e-07 
138 1 0.392862 0.107251 0.4185 55.845 1.88981e-07 
139 1 0.428629 0.107125 0.376369 55.845 6.05624e-11 
144 1 0.392946 -4.38157e-05 0.376235 55.845 2.64869e-07 
145 1 0.392821 0.0357308 0.418319 55.845 -3.59776e-07 
146 1 0.428545 0.0356718 0.37633 55.845 1.17179e-07 
147 1 0.428601 0.0714186 0.418247 55.845 1.1769e-07 
148 1 0.464389 0.0714223 0.376232 55.845 -8.08064e-08 
149 1 0.464329 0.107057 0.41832 55.845 1.15565e-07 
150 1 0.428537 -0.000112663 0.418456 55.845 -6.74665e-07 
151 1 0.464399 -6.47596e-05 0.376346 55.845 1.23001e-07 
152 1 0.464357 0.0357347 0.418199 55.845 -1.13003e-07 
239 1 0.393017 0.0713285 0.291535 55.845 5.65434e-07 
240 1 0.392848 0.107279 0.334196 55.845 -9.37363e-08 
241 1 0.428661 0.107125 0.291652 55.845 5.78677e-07 
246 1 0.39287 9.33161e-06 0.291436 55.845 4.70524e-07 
247 1 0.392926 0.0358209 0.334584 55.845 -3.43845e-07 
248 1 0.428635 0.0356367 0.291498 55.845 4.90281e-07 
249 1 0.428747 0.0714863 0.334515 55.845 -2.57219e-07 
250 1 0.464417 0.0713236 0.291365 55.845 7.42479e-07 
251 1 0.464569 0.10716 0.33463 55.845 -2.67179e-07 
252 1 0.428667 3.97083e-07 0.334626 55.845 -3.28566e-07 
253 1 0.464344 -9.78016e-05 0.291317 55.845 6.16181e-07 
254 1 0.464238 0.0356858 0.334585 55.845 -2.6125e-07 
342 1 0.39292 0.10707 0.248792 55.845 -6.03967e-07 
349 1 0.392921 0.0357409 0.248821 55.845 -2.87947e-07 
351 1 0.428603 0.0713913 0.249038 55.845 -5.86872e-07 
353 1 0.464328 0.107029 0.248984 55.845 -8.73542e-07 
354 1 0.428637 4.74684e-05 0.248825 55.845 7.43247e-08 
356 1 0.464394 0.0355506 0.248752 55.845 -2.81181e-07 
1 1 0.000105648 0.178435 0.459171 55.845 -2.77531e-07 
2 1 0.0357514 0.214316 0.459203 55.845 -2.9858e-07 
4 1 0.0357198 0.142914 0.459342 55.845 -6.31603e-08 
5 1 0.0714726 0.178616 0.45932 55.845 -8.56642e-09 
6 1 0.107324 0.214179 0.459044 55.845 1.25528e-07 
10 1 0.107156 0.142812 0.459259 55.845 5.88477e-08 
51 1 4.50194e-05 0.178609 0.376363 55.845 1.82295e-07 
52 1 0.000169372 0.214272 0.418617 55.845 8.91062e-08 
53 1 0.0357229 0.214455 0.376312 55.845 4.36511e-07 
54 1 0.0358375 0.250148 0.418317 55.845 -1.53566e-07 
56 1 -3.13424e-05 0.142735 0.418299 55.845 -9.94748e-08 
57 1 0.0357323 0.142923 0.376517 55.845 2.94413e-07 
58 1 0.0357698 0.178758 0.418353 55.845 -2.23767e-07 
59 1 0.0714312 0.178723 0.376213 55.845 4.90165e-07 
60 1 0.0714621 0.214373 0.4185 55.845 -4.40091e-07 
61 1 0.107069 0.214298 0.376287 55.845 3.93981e-07 
62 1 0.107069 0.250011 0.418326 55.845 -4.04908e-07 
68 1 0.0714344 0.142967 0.418457 55.845 -4.17743e-07 
69 1 0.107172 0.142894 0.37624 55.845 4.04134e-07 
70 1 0.107202 0.178511 0.418341 55.845 -5.31232e-07 
153 1 -2.63973e-05 0.178602 0.291343 55.845 5.70854e-07 
154 1 3.90024e-05 0.214307 0.334478 55.845 -3.86598e-07 
155 1 0.0357506 0.214258 0.29122 55.845 9.12943e-07 
156 1 0.0357215 0.250085 0.334372 55.845 -3.37005e-07 
158 1 -2.43159e-05 0.142779 0.334567 55.845 -3.11704e-08 
159 1 0.0357933 0.142938 0.29146 55.845 4.31927e-07 
160 1 0.0356065 0.178545 0.334434 55.845 -5.86838e-07 
161 1 0.0713951 0.178587 0.291251 55.845 8.35841e-07 
162 1 0.0713704 0.214334 0.334356 55.845 -4.69544e-07 
163 1 0.107149 0.21425 0.291413 55.845 7.15145e-07 
164 1 0.107184 0.250014 0.334511 55.845 -5.50918e-07 
170 1 0.0714376 0.142866 0.33446 55.845 -4.13722e-07 
171 1 0.107183 0.142905 0.291274 55.845 8.13368e-07 
172 1 0.107133 0.178687 0.334561 55.845 -6.58145e-07 
256 1 -2.0155e-05 0.214374 0.248766 55.845 -7.15165e-07 
258 1 0.0356808 0.250059 0.248622 55.845 -5.17383e-07 
260 1 -1.4877e-05 0.14286 0.248838 55.845 -6.54608e-07 
262 1 0.0356972 0.178497 0.24884 55.845 -8.07172e-07 
264 1 0.0714644 0.214299 0.248653 55.845 -6.35933e-07 
266 1 0.107128 0.249923 0.248834 55.845 -4.55446e-07 
272 1 0.0714297 0.142812 0.248899 55.845 -9.09631e-07 
274 1 0.107167 0.178559 0.24882 55.845 -5.0434e-07 
11 1 0.142902 0.17846 0.459412 55.845 8.82152e-09 
12 1 0.178645 0.214325 0.459417 55.845 1.74026e-07 
17 1 0.17857 0.142872 0.459017 55.845 -2.22213e-07 
18 1 0.214354 0.17874 0.459179 55.845 -1.52461e-07 
19 1 0.250067 0.214396 0.459424 55.845 2.00489e-09 
24 1 0.250119 0.142995 0.459246 55.845 -4.37433e-07 
71 1 0.142792 0.178534 0.376297 55.845 4.74482e-07 
72 1 0.142953 0.214243 0.41847 55.845 -3.77933e-07 
73 1 0.178584 0.214384 0.376511 55.845 5.76555e-08 
82 1 0.142872 0.142823 0.418298 55.845 -2.94329e-07 
83 1 0.178668 0.142769 0.376289 55.845 -3.95242e-08 
84 1 0.178598 0.178689 0.418378 55.845 -1.1646e-07 
85 1 0.214322 0.178695 0.376507 55.845 -1.20342e-07 
86 1 0.214389 0.214419 0.418455 55.845 -1.73865e-07 
87 1 0.250084 0.214324 0.376522 55.845 9.76066e-08 
96 1 0.214321 0.142977 0.418652 55.845 2.83148e-07 
97 1 0.250074 0.142912 0.376599 55.845 -5.77656e-07 
98 1 0.250059 0.178711 0.418454 55.845 1.42524e-07 
173 1 0.142783 0.178516 0.291487 55.845 9.41599e-07 
174 1 0.14281 0.214272 0.334606 55.845 -6.90555e-07 
175 1 0.178575 0.214337 0.291392 55.845 5.2411e-07 
184 1 0.142842 0.142762 0.334477 55.845 -4.51541e-07 
185 1 0.178661 0.142862 0.291322 55.845 8.83451e-07 
186 1 0.178676 0.178678 0.334852 55.845 -6.65138e-07 
187 1 0.214213 0.178599 0.291502 55.845 6.10514e-07 
188 1 0.214279 0.214467 0.334709 55.845 -5.25523e-07 
189 1 0.250066 0.214401 0.29138 55.845 5.38679e-07 
198 1 0.214345 0.142907 0.334625 55.845 -4.67407e-07 
199 1 0.250024 0.14289 0.291375 55.845 4.28988e-07 
200 1 0.249969 0.178764 0.334695 55.845 -5.67306e-07 
276 1 0.142816 0.214317 0.248875 55.845 -5.19256e-07 
286 1 0.142911 0.142876 0.248937 55.845 -6.87355e-07 
288 1 0.178495 0.17863 0.248928 55.845 -4.27941e-07 
290 1 0.214317 0.214201 0.248778 55.845 -2.74793e-07 
300 1 0.214358 0.142945 0.248954 55.845 -6.15787e-07 
302 1 0.249949 0.178555 0.248924 55.845 -3.14455e-07 
25 1 0.28573 0.178663 0.459395 55.845 -2.50817e-07 
26 1 0.321437 0.214401 0.459173 55.845 1.14509e-07 
31 1 0.321511 0.142969 0.459364 55.845 -4.48125e-07 
32 1 0.357253 0.178541 0.459175 55.845 -4.2052e-07 
99 1 0.28586 0.178577 0.376354 55.845 -6.79924e-08 
100 1 0.285776 0.21428 0.41859 55.845 -4.44673e-07 
101 1 0.321458 0.214254 0.376254 55.845 1.89747e-07 
110 1 0.285746 0.142973 0.418686 55.845 3.04521e-07 
111 1 0.321406 0.142829 0.376213 55.845 -3.35971e-07 
112 1 0.321525 0.178568 0.418505 55.845 -9.01263e-08 
113 1 0.357139 0.178459 0.376405 55.845 1.73445e-07 
114 1 0.357201 0.214242 0.418215 55.845 -2.67641e-07 
126 1 0.357098 0.142825 0.418601 55.845 9.3494e-08 
201 1 0.285698 0.178673 0.291372 55.845 3.61846e-07 
202 1 0.285755 0.214222 0.334495 55.845 -2.32276e-07 
203 1 0.321452 0.214347 0.291078 55.845 5.49471e-07 
212 1 0.285783 0.142906 0.334569 55.845 -1.26725e-07 
213 1 0.321441 0.142951 0.291151 55.845 4.96055e-07 
214 1 0.32161 0.178607 0.33421 55.845 -1.8045e-07 
215 1 0.357228 0.178659 0.291018 55.845 7.39885e-07 